
.Version 10.0.5 of ABINIT, released Apr 2024.
.(MPI version, prepared for a x86_64_linux_gnu13.2 computer) 

.Copyright (C) 1998-2024 ABINIT group . 
 ABINIT comes with ABSOLUTELY NO WARRANTY.
 It is free software, and you are welcome to redistribute it
 under certain conditions (GNU General Public License,
 see ~abinit/COPYING or http://www.gnu.org/copyleft/gpl.txt).

 ABINIT is a project of the Universite Catholique de Louvain,
 Corning Inc. and other collaborators, see ~abinit/doc/developers/contributors.txt .
 Please read https://docs.abinit.org/theory/acknowledgments for suggested
 acknowledgments of the ABINIT effort.
 For more information, see https://www.abinit.org .

.Starting date : Mon 10 Jun 2024.
- ( at 14h03 )
  
- input  file    -> pbs.abi
- output file    -> pbs.abo
- root for input  files -> pbsi
- root for output files -> pbso

 DATASET    1 : space group Cm m m (# 65); Bravais oC (1-face-center ortho.)
================================================================================
 Values of the parameters that define the memory need for DATASET  1.
     intxc =       0    ionmov =       0      iscf =       7    lmnmax =       6
     lnmax =       6     mgfft =     192  mpssoang =       3    mqgrid =    9550
     natom =       2  nloc_mem =       1    nspden =       1   nspinor =       1
    nsppol =       1      nsym =       8    n1xccc =    2501    ntypat =       1
    occopt =       1   xclevel =       2
-    mband =           6        mffmem =           1         mkmem =          50
       mpw =       14215          nfft =      307200          nkpt =          50
================================================================================
P This job should need less than                     173.440 Mbytes of memory.
  Rough estimation (10% accuracy) of disk space for files :
_ WF disk file :     65.073 Mbytes ; DEN or POT disk file :      2.346 Mbytes.
================================================================================

 DATASET    2 : space group Cm m m (# 65); Bravais oC (1-face-center ortho.)
================================================================================
 Values of the parameters that define the memory need for DATASET  2.
     intxc =       0    ionmov =       0      iscf =      -2    lmnmax =       6
     lnmax =       6     mgfft =     192  mpssoang =       3    mqgrid =    9550
     natom =       2  nloc_mem =       1    nspden =       1   nspinor =       1
    nsppol =       1      nsym =       8    n1xccc =    2501    ntypat =       1
    occopt =       1   xclevel =       2
-    mband =           8        mffmem =           1         mkmem =          38
       mpw =       14231          nfft =      307200          nkpt =          38
================================================================================
P This job should need less than                     133.406 Mbytes of memory.
  Rough estimation (10% accuracy) of disk space for files :
_ WF disk file :     66.015 Mbytes ; DEN or POT disk file :      2.346 Mbytes.
================================================================================

--------------------------------------------------------------------------------
------------- Echo of variables that govern the present computation ------------
--------------------------------------------------------------------------------
-
- outvars: echo of selected default values                                      
-   iomode0 =  0 , fftalg0 =112 , wfoptalg0 =  0
-
- outvars: echo of global parameters not present in the input file              
-  max_nthreads =    0
-
 -outvars: echo values of preprocessed input variables --------
            acell      1.0000000000E+00  1.0000000000E+00  1.0000000000E+00 Bohr
              amu      3.09737620E+01
           diemac      1.00000000E+01
             ecut      5.00000000E+01 Hartree
           enunit1          0
           enunit2          1
-          fftalg         112
           getden1          0
           getden2         -1
             iscf1          7
             iscf2         -2
           istwfk2       3    0    0    0    0    0    0    0    0    0
                         2    0    0    0    0    0    0    0    0    0
                         8    0    0    0    0    0    0    0    0    0
                         0    0    0    0    0    0    0    0
              ixc          11
           jdtset        1    2
              kpt1    -1.25000000E-01  0.00000000E+00  0.00000000E+00
                      -1.25000000E-01  0.00000000E+00  2.50000000E-01
                      -2.50000000E-01  0.00000000E+00  1.25000000E-01
                      -1.25000000E-01  1.25000000E-01  1.25000000E-01
                      -3.75000000E-01  0.00000000E+00  0.00000000E+00
                      -2.50000000E-01  1.25000000E-01  0.00000000E+00
                      -1.25000000E-01  0.00000000E+00  5.00000000E-01
                      -2.50000000E-01  0.00000000E+00  3.75000000E-01
                      -1.25000000E-01  1.25000000E-01  3.75000000E-01
                      -3.75000000E-01  0.00000000E+00  2.50000000E-01
                      -2.50000000E-01  1.25000000E-01  2.50000000E-01
                       5.00000000E-01  0.00000000E+00  1.25000000E-01
                      -3.75000000E-01  1.25000000E-01  1.25000000E-01
                      -2.50000000E-01  2.50000000E-01  1.25000000E-01
                       5.00000000E-01  1.25000000E-01  0.00000000E+00
                      -3.75000000E-01  2.50000000E-01  0.00000000E+00
                      -3.75000000E-01  0.00000000E+00  5.00000000E-01
                      -2.50000000E-01  1.25000000E-01  5.00000000E-01
                       5.00000000E-01  0.00000000E+00  3.75000000E-01
                      -3.75000000E-01  1.25000000E-01  3.75000000E-01
                      -2.50000000E-01  2.50000000E-01  3.75000000E-01
                       5.00000000E-01  1.25000000E-01  2.50000000E-01
                      -3.75000000E-01  2.50000000E-01  2.50000000E-01
                       3.75000000E-01  1.25000000E-01  1.25000000E-01
                       5.00000000E-01  2.50000000E-01  1.25000000E-01
                      -3.75000000E-01  3.75000000E-01  1.25000000E-01
                       2.50000000E-01  1.25000000E-01  0.00000000E+00
                       3.75000000E-01  2.50000000E-01  0.00000000E+00
                       5.00000000E-01  3.75000000E-01  0.00000000E+00
                       5.00000000E-01  1.25000000E-01  5.00000000E-01
                      -3.75000000E-01  2.50000000E-01  5.00000000E-01
                       3.75000000E-01  1.25000000E-01  3.75000000E-01
                       5.00000000E-01  2.50000000E-01  3.75000000E-01
                      -3.75000000E-01  3.75000000E-01  3.75000000E-01
                       2.50000000E-01  1.25000000E-01  2.50000000E-01
                       3.75000000E-01  2.50000000E-01  2.50000000E-01
                       5.00000000E-01  3.75000000E-01  2.50000000E-01
                       0.00000000E+00  0.00000000E+00  1.25000000E-01
                       1.25000000E-01  1.25000000E-01  1.25000000E-01
                       2.50000000E-01  2.50000000E-01  1.25000000E-01
                       3.75000000E-01  3.75000000E-01  1.25000000E-01
                       5.00000000E-01  5.00000000E-01  1.25000000E-01
                       2.50000000E-01  1.25000000E-01  5.00000000E-01
                       3.75000000E-01  2.50000000E-01  5.00000000E-01
                       5.00000000E-01  3.75000000E-01  5.00000000E-01
                       0.00000000E+00  0.00000000E+00  3.75000000E-01
                       1.25000000E-01  1.25000000E-01  3.75000000E-01
                       2.50000000E-01  2.50000000E-01  3.75000000E-01
                       3.75000000E-01  3.75000000E-01  3.75000000E-01
                       5.00000000E-01  5.00000000E-01  3.75000000E-01
              kpt2     5.00000000E-01  0.00000000E+00  0.00000000E+00
                       4.50000000E-01  0.00000000E+00  0.00000000E+00
                       4.00000000E-01  0.00000000E+00  0.00000000E+00
                       3.50000000E-01  0.00000000E+00  0.00000000E+00
                       3.00000000E-01  0.00000000E+00  0.00000000E+00
                       2.50000000E-01  0.00000000E+00  0.00000000E+00
                       2.00000000E-01  0.00000000E+00  0.00000000E+00
                       1.50000000E-01  0.00000000E+00  0.00000000E+00
                       1.00000000E-01  0.00000000E+00  0.00000000E+00
                       5.00000000E-02  0.00000000E+00  0.00000000E+00
                       0.00000000E+00  0.00000000E+00  0.00000000E+00
                       0.00000000E+00  5.00000000E-02  5.00000000E-02
                       0.00000000E+00  1.00000000E-01  1.00000000E-01
                       0.00000000E+00  1.50000000E-01  1.50000000E-01
                       0.00000000E+00  2.00000000E-01  2.00000000E-01
                       0.00000000E+00  2.50000000E-01  2.50000000E-01
                       0.00000000E+00  3.00000000E-01  3.00000000E-01
                       0.00000000E+00  3.50000000E-01  3.50000000E-01
                       0.00000000E+00  4.00000000E-01  4.00000000E-01
                       0.00000000E+00  4.50000000E-01  4.50000000E-01
                       0.00000000E+00  5.00000000E-01  5.00000000E-01
                       5.88235294E-02  5.29411765E-01  5.29411765E-01
                       1.17647059E-01  5.58823529E-01  5.58823529E-01
                       1.76470588E-01  5.88235294E-01  5.88235294E-01
                       2.35294118E-01  6.17647059E-01  6.17647059E-01
                       2.94117647E-01  6.47058824E-01  6.47058824E-01
                       3.52941176E-01  6.76470588E-01  6.76470588E-01
                       4.11764706E-01  7.05882353E-01  7.05882353E-01
                       4.70588235E-01  7.35294118E-01  7.35294118E-01
                       5.29411765E-01  7.64705882E-01  7.64705882E-01
                       5.88235294E-01  7.94117647E-01  7.94117647E-01
                       6.47058824E-01  8.23529412E-01  8.23529412E-01
                       7.05882353E-01  8.52941176E-01  8.52941176E-01
                       7.64705882E-01  8.82352941E-01  8.82352941E-01
                       8.23529412E-01  9.11764706E-01  9.11764706E-01
                       8.82352941E-01  9.41176471E-01  9.41176471E-01
                       9.41176471E-01  9.70588235E-01  9.70588235E-01
                       1.00000000E+00  1.00000000E+00  1.00000000E+00
           kptopt1          1
           kptopt2         -3
         kptrlatt        0    8    0     -8    8    0     -4    4    4
          kptrlen1     4.54400000E+01
          kptrlen2     3.00000000E+01
P           mkmem1         50
P           mkmem2         38
            natom           2
            nband1          6
            nband2          8
           nbdbuf1          0
           nbdbuf2          2
           ndtset           2
           ndivsm1          0
           ndivsm2         10
            ngfft          40      40     192
             nkpt1         50
             nkpt2         38
            nstep          50
             nsym           8
           ntypat           1
              occ      2.000000  2.000000  2.000000  2.000000  2.000000  0.000000
            rprim      2.8400000000E+00  4.9200000000E+00  0.0000000000E+00
                      -2.8400000000E+00  4.9200000000E+00  0.0000000000E+00
                       0.0000000000E+00  0.0000000000E+00  3.0000000000E+01
           shiftk1     0.00000000E+00  0.00000000E+00  5.00000000E-01
           shiftk2     5.00000000E-01  5.00000000E-01  5.00000000E-01
          spgroup          65
           symrel      1  0  0   0  1  0   0  0  1      -1  0  0   0 -1  0   0  0 -1
                       0 -1  0  -1  0  0   0  0 -1       0  1  0   1  0  0   0  0  1
                      -1  0  0   0 -1  0   0  0  1       1  0  0   0  1  0   0  0 -1
                       0  1  0   1  0  0   0  0 -1       0 -1  0  -1  0  0   0  0  1
           toldfe1     1.00000000E-08 Hartree
           toldfe2     0.00000000E+00 Hartree
           tolwfr1     0.00000000E+00
           tolwfr2     1.00000000E-12
            typat      1  1
              wtk1       0.01563    0.03125    0.03125    0.01563    0.01563    0.01563
                         0.01563    0.03125    0.01563    0.03125    0.03125    0.01563
                         0.03125    0.01563    0.01563    0.01563    0.01563    0.01563
                         0.01563    0.03125    0.01563    0.03125    0.03125    0.03125
                         0.03125    0.01563    0.01563    0.01563    0.01563    0.01563
                         0.01563    0.03125    0.03125    0.01563    0.03125    0.03125
                         0.03125    0.00781    0.01563    0.01563    0.01563    0.00781
                         0.01563    0.01563    0.01563    0.00781    0.01563    0.01563
                         0.01563    0.00781
              wtk2       1.00000    1.00000    1.00000    1.00000    1.00000    1.00000
                         1.00000    1.00000    1.00000    1.00000    1.00000    1.00000
                         1.00000    1.00000    1.00000    1.00000    1.00000    1.00000
                         1.00000    1.00000    1.00000    1.00000    1.00000    1.00000
                         1.00000    1.00000    1.00000    1.00000    1.00000    1.00000
                         1.00000    1.00000    1.00000    1.00000    1.00000    1.00000
                         1.00000    1.00000
           xangst      5.7340460778E-18  1.7183442317E+00  7.9376581289E+00
                       3.4216274956E-17  3.4887595008E+00  7.9376581289E+00
            xcart      1.0835776720E-17  3.2472000000E+00  1.5000000000E+01
                       6.4659388954E-17  6.5928000000E+00  1.5000000000E+01
             xred      3.3000000000E-01  3.3000000000E-01  5.0000000000E-01
                       6.7000000000E-01  6.7000000000E-01  5.0000000000E-01
            znucl       15.00000

================================================================================

 chkinp: Checking input parameters for consistency, jdtset=   1.

 chkinp: Checking input parameters for consistency, jdtset=   2.

================================================================================
== DATASET  1 ==================================================================
-   mpi_nproc: 1, omp_nthreads: -1 (-1 if OMP is not activated)


--- !DatasetInfo
iteration_state: {dtset: 1, }
dimensions: {natom: 2, nkpt: 50, mband: 6, nsppol: 1, nspinor: 1, nspden: 1, mpw: 14215, }
cutoff_energies: {ecut:  50.0, pawecutdg:  -1.0, }
electrons: {nelect:   1.00000000E+01, charge:   0.00000000E+00, occopt:   1.00000000E+00, tsmear:   1.00000000E-02, }
meta: {optdriver: 0, ionmov: 0, optcell: 0, iscf: 7, paral_kgb: 0, }
...

 Exchange-correlation functional for the present dataset will be:
  GGA: Perdew-Burke-Ernzerhof functional - ixc=11
 Citation for XC functional:
  J.P.Perdew, K.Burke, M.Ernzerhof, PRL 77, 3865 (1996)

 Real(R)+Recip(G) space primitive vectors, cartesian coordinates (Bohr,Bohr^-1):
 R(1)=  2.8400000  4.9200000  0.0000000  G(1)=  0.1760563  0.1016260  0.0000000
 R(2)= -2.8400000  4.9200000  0.0000000  G(2)= -0.1760563  0.1016260  0.0000000
 R(3)=  0.0000000  0.0000000 30.0000000  G(3)=  0.0000000  0.0000000  0.0333333
 Unit cell volume ucvol=  8.3836800E+02 bohr^3
 Angles (23,13,12)=  9.00000000E+01  9.00000000E+01  5.99901592E+01 degrees

 getcut: wavevector=  0.0000  0.0000  0.0000  ngfft=  40  40 192
         ecut(hartree)=     50.000   => boxcut(ratio)=   2.01062

--- Pseudopotential description ------------------------------------------------
- pspini: atom type   1  psp file is /home/hrishi/abinit-10.0.5/Pseudopotentials/P.psp8
- pspatm: opening atomic psp file    /home/hrishi/abinit-10.0.5/Pseudopotentials/P.psp8
- P     ONCVPSP-3.2.3.1  r_core=   1.46089   1.55067   1.70594
- 15.00000   5.00000    170429                znucl, zion, pspdat
    8   11    2    4       600   0.00000      pspcod,pspxc,lmax,lloc,mmax,r2well
    5.99000000000000    5.00000000000000    0.00000000000000   rchrg,fchrg,qchrg
     nproj     2     2     2
     extension_switch     1
  pspatm : epsatm=    8.05910623
         --- l  ekb(1:nproj) -->
             0    6.598722    1.052341
             1    3.369366    0.884600
             2   -3.154982   -0.827415
 pspatm: atomic psp has been read  and splines computed

   1.61182125E+02                                ecore*ucvol(ha*bohr**3)
--------------------------------------------------------------------------------

_setup2: Arith. and geom. avg. npw (full set) are   14158.695   14158.656

================================================================================

--- !BeginCycle
iteration_state: {dtset: 1, }
solver: {iscf: 7, nstep: 50, nline: 4, wfoptalg: 0, }
tolerances: {toldfe: 1.00E-08, }
...

     iter   Etot(hartree)      deltaE(h)  residm     vres2
 ETOT  1  -13.448920765679    -1.345E+01 8.303E-02 2.109E+03
 ETOT  2  -13.513105432764    -6.418E-02 7.497E-03 7.303E+02
 ETOT  3  -13.514179875061    -1.074E-03 1.076E-03 4.853E+02
 ETOT  4  -13.515074188479    -8.943E-04 2.817E-03 2.674E+02
 ETOT  5  -13.514745521921     3.287E-04 3.539E-04 2.754E+02
 ETOT  6  -13.515253059737    -5.075E-04 6.529E-04 1.570E+02
 ETOT  7  -13.514840954679     4.121E-04 2.512E-04 1.684E+02
 ETOT  8  -13.515168075349    -3.271E-04 1.362E-03 6.333E+01
 ETOT  9  -13.515284730173    -1.167E-04 9.952E-04 3.527E+01
 ETOT 10  -13.515339673886    -5.494E-05 6.827E-04 3.136E+01
 ETOT 11  -13.515346301959    -6.628E-06 1.510E-04 2.752E+01
 ETOT 12  -13.515387765472    -4.146E-05 2.082E-04 3.165E+01
 ETOT 13  -13.515401062381    -1.330E-05 1.822E-04 2.923E+01
 ETOT 14  -13.515005939814     3.951E-04 9.678E-05 4.685E+01
 ETOT 15  -13.515400585188    -3.946E-04 3.005E-04 2.073E+01
 ETOT 16  -13.515403756474    -3.171E-06 9.987E-05 1.788E+01
 ETOT 17  -13.515023506595     3.802E-04 2.244E-04 3.660E+01
 ETOT 18  -13.515401843976    -3.783E-04 1.158E-04 1.626E+01
 ETOT 19  -13.515402529959    -6.860E-07 1.678E-04 1.552E+01
 ETOT 20  -13.515037685657     3.648E-04 1.709E-04 3.144E+01
 ETOT 21  -13.515400328103    -3.626E-04 2.251E-04 1.312E+01
 ETOT 22  -13.515401834314    -1.506E-06 2.065E-04 1.118E+01
 ETOT 23  -13.515403829166    -1.995E-06 1.849E-04 1.026E+01
 ETOT 24  -13.515404311092    -4.819E-07 1.459E-04 8.935E+00
 ETOT 25  -13.515026006170     3.783E-04 1.115E-04 2.137E+01
 ETOT 26  -13.515042564935    -1.656E-05 7.310E-05 1.945E+01
 ETOT 27  -13.515402793398    -3.602E-04 7.050E-05 6.005E+00
 ETOT 28  -13.515404307761    -1.514E-06 3.870E-05 4.590E+00
 ETOT 29  -13.515041109103     3.632E-04 3.653E-05 1.664E+01
 ETOT 30  -13.515401491330    -3.604E-04 2.176E-05 5.289E+00
 ETOT 31  -13.515403616614    -2.125E-06 1.800E-05 3.194E+00
 ETOT 32  -13.515404129411    -5.128E-07 1.080E-05 2.217E+00
 ETOT 33  -13.515403286072     8.433E-07 9.222E-06 1.475E+00
 ETOT 34  -13.515053896617     3.494E-04 5.156E-06 1.007E+01
 ETOT 35  -13.515405724340    -3.518E-04 1.142E-05 1.003E+00
 ETOT 36  -13.515404527964     1.196E-06 6.620E-06 6.758E-01
 ETOT 37  -13.515405778723    -1.251E-06 1.798E-05 6.441E-01
 ETOT 38  -13.515039678910     3.661E-04 9.297E-06 9.610E+00
 ETOT 39  -13.515041250708    -1.572E-06 2.557E-05 8.846E+00
 ETOT 40  -13.515048235080    -6.984E-06 1.387E-05 8.610E+00
 ETOT 41  -13.515047842371     3.927E-07 3.679E-05 8.334E+00
 ETOT 42  -13.515046347434     1.495E-06 1.942E-05 8.552E+00
 ETOT 43  -13.515042916451     3.431E-06 4.850E-05 8.832E+00
 ETOT 44  -13.515046566182    -3.650E-06 2.641E-05 8.791E+00
 ETOT 45  -13.515052705067    -6.139E-06 5.834E-05 9.384E+00
 ETOT 46  -13.515216145438    -1.634E-04 5.198E-05 1.310E+01
 ETOT 47  -13.515314599942    -9.845E-05 7.507E-05 6.978E+00
 ETOT 48  -13.515362525971    -4.793E-05 6.000E-05 7.917E+00
 ETOT 49  -13.515375394985    -1.287E-05 7.646E-05 3.122E+00
 ETOT 50  -13.515388722030    -1.333E-05 6.037E-05 6.607E+00

 Cartesian components of stress tensor (hartree/bohr^3)
  sigma(1 1)= -1.85661774E-03  sigma(3 2)=  0.00000000E+00
  sigma(2 2)= -1.57551542E-03  sigma(3 1)=  0.00000000E+00
  sigma(3 3)=  2.33232036E-05  sigma(2 1)=  0.00000000E+00


 scprqt:  WARNING -
  nstep=   50 was not enough SCF cycles to converge;
  maximum energy difference=  1.333E-05 exceeds toldfe=  1.000E-08


--- !ResultsGS
iteration_state: {dtset: 1, }
comment   : Summary of ground state results
lattice_vectors:
- [  2.8400000,   4.9200000,   0.0000000, ]
- [ -2.8400000,   4.9200000,   0.0000000, ]
- [  0.0000000,   0.0000000,  30.0000000, ]
lattice_lengths: [   5.68085,    5.68085,   30.00000, ]
lattice_angles: [ 90.000,  90.000,  59.990, ] # degrees, (23, 13, 12)
lattice_volume:   8.3836800E+02
convergence: {deltae: -1.333E-05, res2:  6.607E+00, residm:  6.037E-05, diffor: null, }
etotal    :  -1.35153887E+01
entropy   :   0.00000000E+00
fermie    :   1.88072729E-02
cartesian_stress_tensor: # hartree/bohr^3
- [ -1.85661774E-03,   0.00000000E+00,   0.00000000E+00, ]
- [  0.00000000E+00,  -1.57551542E-03,   0.00000000E+00, ]
- [  0.00000000E+00,   0.00000000E+00,   2.33232036E-05, ]
pressure_GPa:   3.3430E+01
xred      :
- [  3.3000E-01,   3.3000E-01,   5.0000E-01,  P]
- [  6.7000E-01,   6.7000E-01,   5.0000E-01,  P]
cartesian_forces: # hartree/bohr
- [  4.17755921E-18,   3.56825254E-02,  -0.00000000E+00, ]
- [ -4.17755921E-18,  -3.56825254E-02,  -0.00000000E+00, ]
force_length_stats: {min:   3.56825254E-02, max:   3.56825254E-02, mean:   3.56825254E-02, }
...

 Integrated electronic density in atomic spheres:
 ------------------------------------------------
 Atom  Sphere_radius  Integrated_density
    1        2.00000          3.80775277
    2        2.00000          3.80775277
================================================================================

 ----iterations are completed or convergence reached----

 Mean square residual over all n,k,spin=   39.160E-08; max=  60.365E-06
 reduced coordinates (array xred) for    2 atoms
       0.330000000000      0.330000000000      0.500000000000
       0.670000000000      0.670000000000      0.500000000000
 rms dE/dt=  1.4334E-01; max dE/dt=  1.7556E-01; dE/dt below (all hartree)
    1      -0.175558024771     -0.175558024771      0.000000000000
    2       0.175558024771      0.175558024771      0.000000000000

 cartesian coordinates (angstrom) at end:
    1      0.00000000000000     1.71834423173345     7.93765812885000
    2      0.00000000000000     3.48875950079215     7.93765812885000

 cartesian forces (hartree/bohr) at end:
    1      0.00000000000000     0.03568252535990    -0.00000000000000
    2     -0.00000000000000    -0.03568252535990    -0.00000000000000
 frms,max,avg= 2.0601316E-02 3.5682525E-02   0.000E+00  0.000E+00  0.000E+00 h/b

 cartesian forces (eV/Angstrom) at end:
    1      0.00000000000000     1.83486907391517    -0.00000000000000
    2     -0.00000000000000    -1.83486907391517    -0.00000000000000
 frms,max,avg= 1.0593622E+00 1.8348691E+00   0.000E+00  0.000E+00  0.000E+00 e/A
 length scales=  1.000000000000  1.000000000000  1.000000000000 bohr
              =  0.529177208590  0.529177208590  0.529177208590 angstroms
 prteigrs : about to open file pbso_DS1_EIG
 Fermi (or HOMO) energy (hartree) =   0.01881   Average Vxc (hartree)=  -0.11118
 Eigenvalues (hartree) for nkpt=  50  k points:
 kpt#   1, nband=  6, wtk=  0.01563, kpt= -0.1250  0.0000  0.0000 (reduced coord)
  -0.72910   -0.31122   -0.26455   -0.22532    0.00099    0.03177
 prteigrs : prtvol=0 or 1, do not print more k-points.


--- !EnergyTerms
iteration_state     : {dtset: 1, }
comment             : Components of total free energy in Hartree
kinetic             :  6.47812769704698E+00
hartree             :  4.17451035845900E+01
xc                  : -4.52861326291118E+00
Ewald energy        :  3.08820002215826E+01
psp_core            :  1.92257009645090E-01
local_psp           : -9.05087913642762E+01
non_local_psp       :  2.22452739229269E+00
total_energy        : -1.35153887220301E+01
total_energy_eV     : -3.67772430532276E+02
band_energy         : -3.30559432864253E+00
...


 Cartesian components of stress tensor (hartree/bohr^3)
  sigma(1 1)= -1.85661774E-03  sigma(3 2)=  0.00000000E+00
  sigma(2 2)= -1.57551542E-03  sigma(3 1)=  0.00000000E+00
  sigma(3 3)=  2.33232036E-05  sigma(2 1)=  0.00000000E+00

-Cartesian components of stress tensor (GPa)         [Pressure=  3.3430E+01 GPa]
- sigma(1 1)= -5.46235705E+01  sigma(3 2)=  0.00000000E+00
- sigma(2 2)= -4.63532563E+01  sigma(3 1)=  0.00000000E+00
- sigma(3 3)=  6.86192226E-01  sigma(2 1)=  0.00000000E+00

================================================================================
== DATASET  2 ==================================================================
-   mpi_nproc: 1, omp_nthreads: -1 (-1 if OMP is not activated)


--- !DatasetInfo
iteration_state: {dtset: 2, }
dimensions: {natom: 2, nkpt: 38, mband: 8, nsppol: 1, nspinor: 1, nspden: 1, mpw: 14231, }
cutoff_energies: {ecut:  50.0, pawecutdg:  -1.0, }
electrons: {nelect:   1.00000000E+01, charge:   0.00000000E+00, occopt:   1.00000000E+00, tsmear:   1.00000000E-02, }
meta: {optdriver: 0, ionmov: 0, optcell: 0, iscf: -2, paral_kgb: 0, }
...

 mkfilename : getden/=0, take file _DEN from output of DATASET   1.

 Exchange-correlation functional for the present dataset will be:
  GGA: Perdew-Burke-Ernzerhof functional - ixc=11
 Citation for XC functional:
  J.P.Perdew, K.Burke, M.Ernzerhof, PRL 77, 3865 (1996)

 Real(R)+Recip(G) space primitive vectors, cartesian coordinates (Bohr,Bohr^-1):
 R(1)=  2.8400000  4.9200000  0.0000000  G(1)=  0.1760563  0.1016260  0.0000000
 R(2)= -2.8400000  4.9200000  0.0000000  G(2)= -0.1760563  0.1016260  0.0000000
 R(3)=  0.0000000  0.0000000 30.0000000  G(3)=  0.0000000  0.0000000  0.0333333
 Unit cell volume ucvol=  8.3836800E+02 bohr^3
 Angles (23,13,12)=  9.00000000E+01  9.00000000E+01  5.99901592E+01 degrees

 getcut: wavevector=  0.0000  0.0000  0.0000  ngfft=  40  40 192
         ecut(hartree)=     50.000   => boxcut(ratio)=   2.01062
--------------------------------------------------------------------------------


================================================================================
 prteigrs : about to open file pbso_DS2_EIG
 Non-SCF case, kpt    1 (  0.50000  0.00000  0.00000), residuals and eigenvalues=
  8.54E-13  8.00E-13  7.78E-13  4.78E-13  6.07E-13  6.04E-13  2.24E-06  3.60E-06
 -5.9664E-01 -5.3135E-01 -2.9324E-01 -1.8389E-01 -1.0119E-01 -6.6443E-02
  1.9017E-01  2.2575E-01
 Non-SCF case, kpt    2 (  0.45000  0.00000  0.00000), residuals and eigenvalues=
  4.94E-13  2.78E-13  6.70E-13  3.47E-13  5.21E-13  7.44E-13  9.46E-09  1.82E-04
 -6.0967E-01 -5.1555E-01 -2.9189E-01 -1.9492E-01 -8.7001E-02 -6.4928E-02
  1.7042E-01  2.2481E-01
 Non-SCF case, kpt    3 (  0.40000  0.00000  0.00000), residuals and eigenvalues=
  6.66E-13  5.16E-13  5.14E-13  3.76E-13  4.23E-13  3.13E-13  7.33E-10  8.55E-07
 -6.3350E-01 -4.8349E-01 -2.8786E-01 -2.1687E-01 -6.0438E-02 -5.5618E-02
  1.4140E-01  2.1838E-01
 Non-SCF case, kpt    4 (  0.35000  0.00000  0.00000), residuals and eigenvalues=
  6.14E-13  5.47E-13  4.24E-13  9.59E-13  4.67E-13  7.56E-13  7.40E-10  1.10E-07
 -6.5756E-01 -4.4595E-01 -2.8126E-01 -2.3989E-01 -5.3146E-02 -1.6985E-02
  1.1396E-01  1.8886E-01
 Non-SCF case, kpt    5 (  0.30000  0.00000  0.00000), residuals and eigenvalues=
  4.55E-13  2.89E-13  9.49E-13  9.66E-13  6.74E-13  5.29E-13  5.80E-11  8.00E-09
 -6.7944E-01 -4.0576E-01 -2.7226E-01 -2.6109E-01 -4.3387E-02  2.5818E-02
  8.9525E-02  1.6304E-01
 Non-SCF case, kpt    6 (  0.25000  0.00000  0.00000), residuals and eigenvalues=
  5.49E-13  2.24E-13  2.11E-13  5.02E-13  8.22E-13  7.69E-13  1.55E-12  5.54E-08
 -6.9841E-01 -3.6433E-01 -2.7954E-01 -2.6116E-01 -3.1731E-02  6.8544E-02
  7.1573E-02  1.4114E-01
 Non-SCF case, kpt    7 (  0.20000  0.00000  0.00000), residuals and eigenvalues=
  7.38E-13  3.80E-13  4.11E-13  3.84E-13  6.09E-13  6.11E-13  4.60E-06  6.52E-05
 -7.1417E-01 -3.2311E-01 -2.9489E-01 -2.4848E-01 -1.9129E-02  5.1228E-02
  9.6872E-02  1.1842E-01
 Non-SCF case, kpt    8 (  0.15000  0.00000  0.00000), residuals and eigenvalues=
  5.49E-13  9.46E-13  6.30E-13  3.61E-13  5.65E-13  5.89E-13  1.44E-09  3.57E-09
 -7.2655E-01 -3.0693E-01 -2.8416E-01 -2.3507E-01 -7.0817E-03  3.7661E-02
  6.0967E-02  1.0886E-01
 Non-SCF case, kpt    9 (  0.10000  0.00000  0.00000), residuals and eigenvalues=
  6.30E-13  5.04E-13  6.69E-13  3.58E-13  9.14E-13  3.97E-13  2.73E-12  2.28E-09
 -7.3544E-01 -3.1559E-01 -2.5076E-01 -2.2225E-01  2.2736E-03  2.7678E-02
  3.2876E-02  9.8891E-02
 Non-SCF case, kpt   10 (  0.05000  0.00000  0.00000), residuals and eigenvalues=
  9.00E-13  1.91E-13  4.83E-13  7.16E-13  9.69E-13  5.90E-13  8.34E-13  3.70E-10
 -7.4080E-01 -3.2080E-01 -2.2794E-01 -2.1187E-01  5.7155E-03  1.6081E-02
  2.1693E-02  9.2886E-02
 Non-SCF case, kpt   11 (  0.00000  0.00000  0.00000), residuals and eigenvalues=
  4.75E-13  5.48E-13  6.79E-13  7.43E-13  5.26E-13  5.52E-13  5.09E-13  1.37E-10
 -7.4260E-01 -3.2254E-01 -2.2021E-01 -2.0725E-01  3.0642E-03  1.4274E-02
  1.9000E-02  9.0883E-02
 Non-SCF case, kpt   12 (  0.00000  0.05000  0.05000), residuals and eigenvalues=
  8.85E-13  4.83E-13  8.19E-13  6.22E-13  4.38E-13  5.01E-13  6.83E-13  3.85E-11
 -7.4080E-01 -3.2080E-01 -2.2794E-01 -2.1187E-01  5.7155E-03  1.6081E-02
  2.1694E-02  9.2680E-02
 Non-SCF case, kpt   13 (  0.00000  0.10000  0.10000), residuals and eigenvalues=
  8.13E-13  3.33E-13  3.90E-13  2.81E-13  7.28E-13  4.11E-13  7.82E-13  8.21E-11
 -7.3544E-01 -3.1559E-01 -2.5076E-01 -2.2225E-01  2.2737E-03  2.7683E-02
  3.2877E-02  9.8141E-02
 Non-SCF case, kpt   14 (  0.00000  0.15000  0.15000), residuals and eigenvalues=
  4.99E-13  2.70E-13  3.42E-13  2.52E-13  5.51E-13  8.15E-13  3.66E-09  7.02E-09
 -7.2655E-01 -3.0693E-01 -2.8416E-01 -2.3507E-01 -7.0817E-03  3.7673E-02
  6.0967E-02  1.0739E-01
 Non-SCF case, kpt   15 (  0.00000  0.20000  0.20000), residuals and eigenvalues=
  6.47E-13  3.83E-13  9.68E-13  8.61E-13  1.88E-13  2.34E-13  3.81E-06  3.99E-05
 -7.1417E-01 -3.2311E-01 -2.9489E-01 -2.4848E-01 -1.9129E-02  5.1248E-02
  9.6881E-02  1.1817E-01
 Non-SCF case, kpt   16 (  0.00000  0.25000  0.25000), residuals and eigenvalues=
  4.54E-13  5.10E-13  4.75E-13  4.39E-13  7.77E-13  8.87E-13  5.81E-13  8.93E-10
 -6.9841E-01 -3.6433E-01 -2.7954E-01 -2.6116E-01 -3.1731E-02  6.8572E-02
  7.1573E-02  1.3816E-01
 Non-SCF case, kpt   17 (  0.00000  0.30000  0.30000), residuals and eigenvalues=
  5.12E-13  2.94E-13  3.80E-13  2.35E-13  8.60E-13  2.67E-13  4.87E-11  6.22E-07
 -6.7944E-01 -4.0576E-01 -2.7226E-01 -2.6109E-01 -4.3387E-02  2.5818E-02
  8.9558E-02  1.5951E-01
 Non-SCF case, kpt   18 (  0.00000  0.35000  0.35000), residuals and eigenvalues=
  6.03E-13  4.11E-13  6.83E-13  3.49E-13  9.14E-13  3.15E-13  2.93E-10  1.74E-08
 -6.5756E-01 -4.4595E-01 -2.8126E-01 -2.3989E-01 -5.3146E-02 -1.6985E-02
  1.1400E-01  1.8495E-01
 Non-SCF case, kpt   19 (  0.00000  0.40000  0.40000), residuals and eigenvalues=
  4.25E-13  8.04E-13  4.24E-13  5.13E-13  4.12E-13  3.96E-13  1.97E-09  2.41E-06
 -6.3350E-01 -4.8349E-01 -2.8786E-01 -2.1687E-01 -6.0438E-02 -5.5618E-02
  1.4143E-01  2.1439E-01
 Non-SCF case, kpt   20 (  0.00000  0.45000  0.45000), residuals and eigenvalues=
  5.28E-13  2.76E-13  7.58E-13  5.19E-13  9.80E-13  8.73E-13  1.44E-08  2.25E-04
 -6.0967E-01 -5.1555E-01 -2.9189E-01 -1.9492E-01 -8.7001E-02 -6.4928E-02
  1.7044E-01  2.4646E-01
 Non-SCF case, kpt   21 (  0.00000  0.50000  0.50000), residuals and eigenvalues=
  8.85E-13  5.24E-13  3.46E-13  3.63E-13  8.91E-13  4.26E-13  1.55E-07  9.89E-06
 -5.9664E-01 -5.3135E-01 -2.9324E-01 -1.8389E-01 -1.0119E-01 -6.6443E-02
  1.9018E-01  2.2303E-01
 Non-SCF case, kpt   22 (  0.05882  0.52941  0.52941), residuals and eigenvalues=
  5.92E-13  4.33E-13  2.83E-13  4.10E-13  7.09E-13  5.49E-13  3.53E-07  1.54E-05
 -5.9480E-01 -5.3037E-01 -3.0514E-01 -1.8203E-01 -1.0080E-01 -5.1665E-02
  1.9176E-01  1.9691E-01
 Non-SCF case, kpt   23 (  0.11765  0.55882  0.55882), residuals and eigenvalues=
  6.67E-13  4.20E-13  7.32E-13  5.07E-13  2.72E-13  5.31E-13  7.74E-09  4.47E-07
 -5.8929E-01 -5.2772E-01 -3.3362E-01 -1.7646E-01 -1.0007E-01 -1.4610E-02
  1.5412E-01  1.9636E-01
 Non-SCF case, kpt   24 (  0.17647  0.58824  0.58824), residuals and eigenvalues=
  5.87E-13  6.04E-13  6.47E-13  4.40E-13  5.12E-13  6.78E-13  3.17E-11  5.18E-06
 -5.8014E-01 -5.2450E-01 -3.6733E-01 -1.6719E-01 -1.0042E-01  3.3162E-02
  1.1413E-01  2.0359E-01
 Non-SCF case, kpt   25 (  0.23529  0.61765  0.61765), residuals and eigenvalues=
  4.34E-13  2.71E-13  3.06E-13  8.07E-13  6.29E-13  4.81E-13  3.50E-13  1.13E-06
 -5.6740E-01 -5.2344E-01 -3.9787E-01 -1.5424E-01 -1.0454E-01  8.2003E-02
  8.3140E-02  2.1237E-01
 Non-SCF case, kpt   26 (  0.29412  0.64706  0.64706), residuals and eigenvalues=
  3.21E-13  2.39E-13  7.43E-13  7.68E-13  7.36E-13  3.59E-13  1.47E-08  4.69E-05
 -5.5120E-01 -5.2975E-01 -4.1740E-01 -1.3776E-01 -1.1544E-01  6.5397E-02
  1.1722E-01  2.1602E-01
 Non-SCF case, kpt   27 (  0.35294  0.67647  0.67647), residuals and eigenvalues=
  2.55E-13  5.79E-13  4.96E-13  5.68E-13  2.06E-13  7.23E-13  2.29E-08  9.24E-05
 -5.4789E-01 -5.3107E-01 -4.2088E-01 -1.3534E-01 -1.1653E-01  6.2285E-02
  1.2096E-01  2.1879E-01
 Non-SCF case, kpt   28 (  0.41176  0.70588  0.70588), residuals and eigenvalues=
  4.11E-13  4.20E-13  6.13E-13  5.49E-13  4.90E-13  2.86E-13  4.88E-10  4.22E-06
 -5.7336E-01 -5.0817E-01 -4.1128E-01 -1.5957E-01 -9.2816E-02  7.1476E-02
  1.0413E-01  2.0325E-01
 Non-SCF case, kpt   29 (  0.47059  0.73529  0.73529), residuals and eigenvalues=
  8.25E-13  6.50E-13  2.41E-13  2.95E-13  5.79E-13  5.25E-13  6.48E-13  4.92E-08
 -6.0143E-01 -4.8196E-01 -3.9388E-01 -1.8616E-01 -6.5180E-02  8.2199E-02
  8.9500E-02  1.7602E-01
 Non-SCF case, kpt   30 (  0.52941  0.76471  0.76471), residuals and eigenvalues=
  3.92E-13  6.48E-13  2.89E-13  3.08E-13  5.20E-13  3.32E-13  2.52E-11  9.33E-09
 -6.2893E-01 -4.5276E-01 -3.7185E-01 -2.1246E-01 -3.3909E-02  6.0541E-02
  1.1361E-01  1.4616E-01
 Non-SCF case, kpt   31 (  0.58824  0.79412  0.79412), residuals and eigenvalues=
  4.39E-13  3.08E-13  4.99E-13  8.36E-13  6.87E-13  8.32E-13  8.10E-11  3.78E-06
 -6.5442E-01 -4.2087E-01 -3.4699E-01 -2.3702E-01  9.1397E-04  4.1116E-02
  1.1795E-01  1.4181E-01
 Non-SCF case, kpt   32 (  0.64706  0.82353  0.82353), residuals and eigenvalues=
  4.31E-13  8.15E-13  5.83E-13  3.35E-13  9.80E-13  9.72E-13  1.97E-10  1.83E-06
 -6.7719E-01 -3.8666E-01 -3.2063E-01 -2.5907E-01  2.4925E-02  3.9194E-02
  9.2705E-02  1.1921E-01
 Non-SCF case, kpt   33 (  0.70588  0.85294  0.85294), residuals and eigenvalues=
  9.80E-13  2.88E-13  2.96E-13  2.78E-13  1.84E-13  7.02E-13  9.91E-11  6.44E-08
 -6.9685E-01 -3.5072E-01 -2.9414E-01 -2.7814E-01  1.2647E-02  7.0937E-02
  8.0790E-02  9.6982E-02
 Non-SCF case, kpt   34 (  0.76471  0.88235  0.88235), residuals and eigenvalues=
  5.40E-13  3.08E-13  4.06E-13  2.77E-13  3.87E-13  7.91E-13  1.84E-08  2.86E-06
 -7.1316E-01 -3.1396E-01 -2.9397E-01 -2.6907E-01  4.7568E-03  5.2879E-02
  7.5800E-02  1.2288E-01
 Non-SCF case, kpt   35 (  0.82353  0.91176  0.91176), residuals and eigenvalues=
  9.56E-13  6.44E-13  3.19E-13  6.92E-13  8.79E-13  7.03E-13  5.16E-12  1.91E-10
 -7.2597E-01 -3.0641E-01 -2.7800E-01 -2.4711E-01  1.3359E-03  3.8615E-02
  5.5179E-02  1.0893E-01
 Non-SCF case, kpt   36 (  0.88235  0.94118  0.94118), residuals and eigenvalues=
  4.73E-13  7.46E-13  2.62E-13  3.90E-13  8.07E-13  6.39E-13  1.22E-11  2.95E-11
 -7.3519E-01 -3.1535E-01 -2.4606E-01 -2.2950E-01  1.5824E-03  2.8115E-02
  3.5387E-02  9.8903E-02
 Non-SCF case, kpt   37 (  0.94118  0.97059  0.97059), residuals and eigenvalues=
  5.26E-13  7.82E-13  2.55E-13  4.88E-13  9.20E-13  7.01E-13  3.83E-13  6.45E-10
 -7.4074E-01 -3.2074E-01 -2.2557E-01 -2.1494E-01  3.1161E-03  1.9426E-02
  2.1678E-02  9.2886E-02
 Non-SCF case, kpt   38 (  1.00000  1.00000  1.00000), residuals and eigenvalues=
  7.19E-13  5.90E-13  6.57E-13  7.03E-13  7.93E-13  5.76E-13  7.84E-13  3.67E-10
 -7.4260E-01 -3.2254E-01 -2.2021E-01 -2.0725E-01  3.0642E-03  1.4274E-02
  1.9000E-02  9.0883E-02


--- !ResultsGS
iteration_state: {dtset: 2, }
comment   : Summary of ground state results
lattice_vectors:
- [  2.8400000,   4.9200000,   0.0000000, ]
- [ -2.8400000,   4.9200000,   0.0000000, ]
- [  0.0000000,   0.0000000,  30.0000000, ]
lattice_lengths: [   5.68085,    5.68085,   30.00000, ]
lattice_angles: [ 90.000,  90.000,  59.990, ] # degrees, (23, 13, 12)
lattice_volume:   8.3836800E+02
convergence: {deltae:  0.000E+00, res2:  0.000E+00, residm:  9.804E-13, diffor:  0.000E+00, }
etotal    :  -1.35153887E+01
entropy   :   0.00000000E+00
fermie    :   1.88072729E-02
cartesian_stress_tensor: null
pressure_GPa: null
xred      :
- [  3.3000E-01,   3.3000E-01,   5.0000E-01,  P]
- [  6.7000E-01,   6.7000E-01,   5.0000E-01,  P]
cartesian_forces: null
force_length_stats: {min: null, max: null, mean: null, }
...

 Integrated electronic density in atomic spheres:
 ------------------------------------------------
 Atom  Sphere_radius  Integrated_density
    1        2.00000          3.80775277
    2        2.00000          3.80775277
================================================================================

 ----iterations are completed or convergence reached----

 Mean square residual over all n,k,spin=   55.249E-14; max=  98.044E-14
 reduced coordinates (array xred) for    2 atoms
       0.330000000000      0.330000000000      0.500000000000
       0.670000000000      0.670000000000      0.500000000000

 cartesian coordinates (angstrom) at end:
    1      0.00000000000000     1.71834423173345     7.93765812885000
    2      0.00000000000000     3.48875950079215     7.93765812885000
 length scales=  1.000000000000  1.000000000000  1.000000000000 bohr
              =  0.529177208590  0.529177208590  0.529177208590 angstroms
 prteigrs : about to open file pbso_DS2_EIG
 Eigenvalues (   eV  ) for nkpt=  38  k points:
 kpt#   1, nband=  8, wtk=  1.00000, kpt=  0.5000  0.0000  0.0000 (reduced coord)
 -16.23545  -14.45865   -7.97938   -5.00381   -2.75355   -1.80800    5.17477    6.14295
 kpt#   2, nband=  8, wtk=  1.00000, kpt=  0.4500  0.0000  0.0000 (reduced coord)
 -16.58988  -14.02894   -7.94264   -5.30404   -2.36741   -1.76678    4.63733    6.11729
 kpt#   3, nband=  8, wtk=  1.00000, kpt=  0.4000  0.0000  0.0000 (reduced coord)
 -17.23840  -13.15643   -7.83320   -5.90121   -1.64460   -1.51344    3.84767    5.94231
 kpt#   4, nband=  8, wtk=  1.00000, kpt=  0.3500  0.0000  0.0000 (reduced coord)
 -17.89303  -12.13505   -7.65355   -6.52765   -1.44618   -0.46218    3.10106    5.13917
 kpt#   5, nband=  8, wtk=  1.00000, kpt=  0.3000  0.0000  0.0000 (reduced coord)
 -18.48839  -11.04139   -7.40854   -7.10454   -1.18061    0.70254    2.43609    4.43666
 kpt#   6, nband=  8, wtk=  1.00000, kpt=  0.2500  0.0000  0.0000 (reduced coord)
 -19.00471   -9.91403   -7.60679   -7.10650   -0.86346    1.86517    1.94761    3.84060
 kpt#   7, nband=  8, wtk=  1.00000, kpt=  0.2000  0.0000  0.0000 (reduced coord)
 -19.43351   -8.79240   -8.02426   -6.76144   -0.52051    1.39398    2.63601    3.22230
 kpt#   8, nband=  8, wtk=  1.00000, kpt=  0.1500  0.0000  0.0000 (reduced coord)
 -19.77031   -8.35207   -7.73250   -6.39652   -0.19270    1.02480    1.65900    2.96223
 kpt#   9, nband=  8, wtk=  1.00000, kpt=  0.1000  0.0000  0.0000 (reduced coord)
 -20.01245   -8.58761   -6.82354   -6.04784    0.06187    0.75315    0.89461    2.69097
 kpt#  10, nband=  8, wtk=  1.00000, kpt=  0.0500  0.0000  0.0000 (reduced coord)
 -20.15832   -8.72943   -6.20263   -5.76525    0.15553    0.43759    0.59029    2.52756
 kpt#  11, nband=  8, wtk=  1.00000, kpt=  0.0000  0.0000  0.0000 (reduced coord)
 -20.20704   -8.77677   -5.99229   -5.63959    0.08338    0.38842    0.51701    2.47304
 kpt#  12, nband=  8, wtk=  1.00000, kpt=  0.0000  0.0500  0.0500 (reduced coord)
 -20.15832   -8.72943   -6.20263   -5.76525    0.15553    0.43759    0.59033    2.52195
 kpt#  13, nband=  8, wtk=  1.00000, kpt=  0.0000  0.1000  0.1000 (reduced coord)
 -20.01246   -8.58761   -6.82354   -6.04784    0.06187    0.75330    0.89462    2.67056
 kpt#  14, nband=  8, wtk=  1.00000, kpt=  0.0000  0.1500  0.1500 (reduced coord)
 -19.77031   -8.35207   -7.73250   -6.39652   -0.19270    1.02514    1.65900    2.92223
 kpt#  15, nband=  8, wtk=  1.00000, kpt=  0.0000  0.2000  0.2000 (reduced coord)
 -19.43351   -8.79240   -8.02426   -6.76144   -0.52051    1.39453    2.63626    3.21548
 kpt#  16, nband=  8, wtk=  1.00000, kpt=  0.0000  0.2500  0.2500 (reduced coord)
 -19.00471   -9.91403   -7.60679   -7.10650   -0.86346    1.86593    1.94760    3.75960
 kpt#  17, nband=  8, wtk=  1.00000, kpt=  0.0000  0.3000  0.3000 (reduced coord)
 -18.48839  -11.04139   -7.40854   -7.10454   -1.18061    0.70254    2.43700    4.34039
 kpt#  18, nband=  8, wtk=  1.00000, kpt=  0.0000  0.3500  0.3500 (reduced coord)
 -17.89303  -12.13505   -7.65356   -6.52765   -1.44618   -0.46218    3.10204    5.03285
 kpt#  19, nband=  8, wtk=  1.00000, kpt=  0.0000  0.4000  0.4000 (reduced coord)
 -17.23840  -13.15643   -7.83320   -5.90121   -1.64460   -1.51344    3.84860    5.83393
 kpt#  20, nband=  8, wtk=  1.00000, kpt=  0.0000  0.4500  0.4500 (reduced coord)
 -16.58988  -14.02894   -7.94264   -5.30404   -2.36741   -1.76678    4.63803    6.70645
 kpt#  21, nband=  8, wtk=  1.00000, kpt=  0.0000  0.5000  0.5000 (reduced coord)
 -16.23545  -14.45865   -7.97938   -5.00381   -2.75355   -1.80800    5.17503    6.06889
 kpt#  22, nband=  8, wtk=  1.00000, kpt=  0.0588  0.5294  0.5294 (reduced coord)
 -16.18538  -14.43202   -8.30335   -4.95329   -2.74296   -1.40587    5.21793    5.35814
 kpt#  23, nband=  8, wtk=  1.00000, kpt=  0.1176  0.5588  0.5588 (reduced coord)
 -16.03542  -14.36000   -9.07825   -4.80178   -2.72295   -0.39755    4.19379    5.34332
 kpt#  24, nband=  8, wtk=  1.00000, kpt=  0.1765  0.5882  0.5882 (reduced coord)
 -15.78636  -14.27236   -9.99558   -4.54949   -2.73265    0.90238    3.10563    5.53990
 kpt#  25, nband=  8, wtk=  1.00000, kpt=  0.2353  0.6176  0.6176 (reduced coord)
 -15.43967  -14.24347  -10.82646   -4.19707   -2.84456    2.23142    2.26237    5.77883
 kpt#  26, nband=  8, wtk=  1.00000, kpt=  0.2941  0.6471  0.6471 (reduced coord)
 -14.99879  -14.41512  -11.35811   -3.74863   -3.14124    1.77954    3.18980    5.87833
 kpt#  27, nband=  8, wtk=  1.00000, kpt=  0.3529  0.6765  0.6765 (reduced coord)
 -14.90886  -14.45105  -11.45286   -3.68292   -3.17104    1.69486    3.29155    5.95368
 kpt#  28, nband=  8, wtk=  1.00000, kpt=  0.4118  0.7059  0.7059 (reduced coord)
 -15.60200  -13.82796  -11.19152   -4.34207   -2.52565    1.94496    2.83356    5.53079
 kpt#  29, nband=  8, wtk=  1.00000, kpt=  0.4706  0.7353  0.7353 (reduced coord)
 -16.36585  -13.11474  -10.71799   -5.06580   -1.77364    2.23674    2.43541    4.78975
 kpt#  30, nband=  8, wtk=  1.00000, kpt=  0.5294  0.7647  0.7647 (reduced coord)
 -17.11406  -12.32028  -10.11859   -5.78135   -0.92272    1.64741    3.09140    3.97731
 kpt#  31, nband=  8, wtk=  1.00000, kpt=  0.5882  0.7941  0.7941 (reduced coord)
 -17.80762  -11.45235   -9.44196   -6.44976    0.02487    1.11882    3.20963    3.85877
 kpt#  32, nband=  8, wtk=  1.00000, kpt=  0.6471  0.8235  0.8235 (reduced coord)
 -18.42722  -10.52153   -8.72475   -7.04956    0.67824    1.06652    2.52262    3.24389
 kpt#  33, nband=  8, wtk=  1.00000, kpt=  0.7059  0.8529  0.8529 (reduced coord)
 -18.96219   -9.54350   -8.00394   -7.56852    0.34415    1.93031    2.19841    2.63902
 kpt#  34, nband=  8, wtk=  1.00000, kpt=  0.7647  0.8824  0.8824 (reduced coord)
 -19.40607   -8.54333   -7.99943   -7.32182    0.12944    1.43890    2.06263    3.34379
 kpt#  35, nband=  8, wtk=  1.00000, kpt=  0.8235  0.9118  0.9118 (reduced coord)
 -19.75474   -8.33790   -7.56487   -6.72430    0.03635    1.05078    1.50151    2.96426
 kpt#  36, nband=  8, wtk=  1.00000, kpt=  0.8824  0.9412  0.9412 (reduced coord)
 -20.00549   -8.58124   -6.69570   -6.24506    0.04306    0.76506    0.96292    2.69128
 kpt#  37, nband=  8, wtk=  1.00000, kpt=  0.9412  0.9706  0.9706 (reduced coord)
 -20.15657   -8.72782   -6.13817   -5.84873    0.08479    0.52861    0.58990    2.52757
 kpt#  38, nband=  8, wtk=  1.00000, kpt=  1.0000  1.0000  1.0000 (reduced coord)
 -20.20704   -8.77677   -5.99229   -5.63959    0.08338    0.38842    0.51701    2.47304

== END DATASET(S) ==============================================================
================================================================================
  
 -outvars: echo values of variables after computation  --------
            acell      1.0000000000E+00  1.0000000000E+00  1.0000000000E+00 Bohr
              amu      3.09737620E+01
           diemac      1.00000000E+01
             ecut      5.00000000E+01 Hartree
           enunit1          0
           enunit2          1
           etotal1    -1.3515388722E+01
            fcart1     4.1775592081E-18  3.5682525360E-02 -0.0000000000E+00
                      -4.1775592081E-18 -3.5682525360E-02 -0.0000000000E+00
-          fftalg         112
           getden1          0
           getden2         -1
             iscf1          7
             iscf2         -2
           istwfk2       3    0    0    0    0    0    0    0    0    0
                         2    0    0    0    0    0    0    0    0    0
                         8    0    0    0    0    0    0    0    0    0
                         0    0    0    0    0    0    0    0
              ixc          11
           jdtset        1    2
              kpt1    -1.25000000E-01  0.00000000E+00  0.00000000E+00
                      -1.25000000E-01  0.00000000E+00  2.50000000E-01
                      -2.50000000E-01  0.00000000E+00  1.25000000E-01
                      -1.25000000E-01  1.25000000E-01  1.25000000E-01
                      -3.75000000E-01  0.00000000E+00  0.00000000E+00
                      -2.50000000E-01  1.25000000E-01  0.00000000E+00
                      -1.25000000E-01  0.00000000E+00  5.00000000E-01
                      -2.50000000E-01  0.00000000E+00  3.75000000E-01
                      -1.25000000E-01  1.25000000E-01  3.75000000E-01
                      -3.75000000E-01  0.00000000E+00  2.50000000E-01
                      -2.50000000E-01  1.25000000E-01  2.50000000E-01
                       5.00000000E-01  0.00000000E+00  1.25000000E-01
                      -3.75000000E-01  1.25000000E-01  1.25000000E-01
                      -2.50000000E-01  2.50000000E-01  1.25000000E-01
                       5.00000000E-01  1.25000000E-01  0.00000000E+00
                      -3.75000000E-01  2.50000000E-01  0.00000000E+00
                      -3.75000000E-01  0.00000000E+00  5.00000000E-01
                      -2.50000000E-01  1.25000000E-01  5.00000000E-01
                       5.00000000E-01  0.00000000E+00  3.75000000E-01
                      -3.75000000E-01  1.25000000E-01  3.75000000E-01
                      -2.50000000E-01  2.50000000E-01  3.75000000E-01
                       5.00000000E-01  1.25000000E-01  2.50000000E-01
                      -3.75000000E-01  2.50000000E-01  2.50000000E-01
                       3.75000000E-01  1.25000000E-01  1.25000000E-01
                       5.00000000E-01  2.50000000E-01  1.25000000E-01
                      -3.75000000E-01  3.75000000E-01  1.25000000E-01
                       2.50000000E-01  1.25000000E-01  0.00000000E+00
                       3.75000000E-01  2.50000000E-01  0.00000000E+00
                       5.00000000E-01  3.75000000E-01  0.00000000E+00
                       5.00000000E-01  1.25000000E-01  5.00000000E-01
                      -3.75000000E-01  2.50000000E-01  5.00000000E-01
                       3.75000000E-01  1.25000000E-01  3.75000000E-01
                       5.00000000E-01  2.50000000E-01  3.75000000E-01
                      -3.75000000E-01  3.75000000E-01  3.75000000E-01
                       2.50000000E-01  1.25000000E-01  2.50000000E-01
                       3.75000000E-01  2.50000000E-01  2.50000000E-01
                       5.00000000E-01  3.75000000E-01  2.50000000E-01
                       0.00000000E+00  0.00000000E+00  1.25000000E-01
                       1.25000000E-01  1.25000000E-01  1.25000000E-01
                       2.50000000E-01  2.50000000E-01  1.25000000E-01
                       3.75000000E-01  3.75000000E-01  1.25000000E-01
                       5.00000000E-01  5.00000000E-01  1.25000000E-01
                       2.50000000E-01  1.25000000E-01  5.00000000E-01
                       3.75000000E-01  2.50000000E-01  5.00000000E-01
                       5.00000000E-01  3.75000000E-01  5.00000000E-01
                       0.00000000E+00  0.00000000E+00  3.75000000E-01
                       1.25000000E-01  1.25000000E-01  3.75000000E-01
                       2.50000000E-01  2.50000000E-01  3.75000000E-01
                       3.75000000E-01  3.75000000E-01  3.75000000E-01
                       5.00000000E-01  5.00000000E-01  3.75000000E-01
              kpt2     5.00000000E-01  0.00000000E+00  0.00000000E+00
                       4.50000000E-01  0.00000000E+00  0.00000000E+00
                       4.00000000E-01  0.00000000E+00  0.00000000E+00
                       3.50000000E-01  0.00000000E+00  0.00000000E+00
                       3.00000000E-01  0.00000000E+00  0.00000000E+00
                       2.50000000E-01  0.00000000E+00  0.00000000E+00
                       2.00000000E-01  0.00000000E+00  0.00000000E+00
                       1.50000000E-01  0.00000000E+00  0.00000000E+00
                       1.00000000E-01  0.00000000E+00  0.00000000E+00
                       5.00000000E-02  0.00000000E+00  0.00000000E+00
                       0.00000000E+00  0.00000000E+00  0.00000000E+00
                       0.00000000E+00  5.00000000E-02  5.00000000E-02
                       0.00000000E+00  1.00000000E-01  1.00000000E-01
                       0.00000000E+00  1.50000000E-01  1.50000000E-01
                       0.00000000E+00  2.00000000E-01  2.00000000E-01
                       0.00000000E+00  2.50000000E-01  2.50000000E-01
                       0.00000000E+00  3.00000000E-01  3.00000000E-01
                       0.00000000E+00  3.50000000E-01  3.50000000E-01
                       0.00000000E+00  4.00000000E-01  4.00000000E-01
                       0.00000000E+00  4.50000000E-01  4.50000000E-01
                       0.00000000E+00  5.00000000E-01  5.00000000E-01
                       5.88235294E-02  5.29411765E-01  5.29411765E-01
                       1.17647059E-01  5.58823529E-01  5.58823529E-01
                       1.76470588E-01  5.88235294E-01  5.88235294E-01
                       2.35294118E-01  6.17647059E-01  6.17647059E-01
                       2.94117647E-01  6.47058824E-01  6.47058824E-01
                       3.52941176E-01  6.76470588E-01  6.76470588E-01
                       4.11764706E-01  7.05882353E-01  7.05882353E-01
                       4.70588235E-01  7.35294118E-01  7.35294118E-01
                       5.29411765E-01  7.64705882E-01  7.64705882E-01
                       5.88235294E-01  7.94117647E-01  7.94117647E-01
                       6.47058824E-01  8.23529412E-01  8.23529412E-01
                       7.05882353E-01  8.52941176E-01  8.52941176E-01
                       7.64705882E-01  8.82352941E-01  8.82352941E-01
                       8.23529412E-01  9.11764706E-01  9.11764706E-01
                       8.82352941E-01  9.41176471E-01  9.41176471E-01
                       9.41176471E-01  9.70588235E-01  9.70588235E-01
                       1.00000000E+00  1.00000000E+00  1.00000000E+00
           kptopt1          1
           kptopt2         -3
         kptrlatt        0    8    0     -8    8    0     -4    4    4
          kptrlen1     4.54400000E+01
          kptrlen2     3.00000000E+01
P           mkmem1         50
P           mkmem2         38
            natom           2
            nband1          6
            nband2          8
           nbdbuf1          0
           nbdbuf2          2
           ndtset           2
           ndivsm1          0
           ndivsm2         10
            ngfft          40      40     192
             nkpt1         50
             nkpt2         38
            nstep          50
             nsym           8
           ntypat           1
              occ      2.000000  2.000000  2.000000  2.000000  2.000000  0.000000
            rprim      2.8400000000E+00  4.9200000000E+00  0.0000000000E+00
                      -2.8400000000E+00  4.9200000000E+00  0.0000000000E+00
                       0.0000000000E+00  0.0000000000E+00  3.0000000000E+01
           shiftk1     0.00000000E+00  0.00000000E+00  5.00000000E-01
           shiftk2     5.00000000E-01  5.00000000E-01  5.00000000E-01
          spgroup          65
           strten1    -1.8566177380E-03 -1.5755154245E-03  2.3323203643E-05
                       0.0000000000E+00  0.0000000000E+00  0.0000000000E+00
           symrel      1  0  0   0  1  0   0  0  1      -1  0  0   0 -1  0   0  0 -1
                       0 -1  0  -1  0  0   0  0 -1       0  1  0   1  0  0   0  0  1
                      -1  0  0   0 -1  0   0  0  1       1  0  0   0  1  0   0  0 -1
                       0  1  0   1  0  0   0  0 -1       0 -1  0  -1  0  0   0  0  1
           toldfe1     1.00000000E-08 Hartree
           toldfe2     0.00000000E+00 Hartree
           tolwfr1     0.00000000E+00
           tolwfr2     1.00000000E-12
            typat      1  1
              wtk1       0.01563    0.03125    0.03125    0.01563    0.01563    0.01563
                         0.01563    0.03125    0.01563    0.03125    0.03125    0.01563
                         0.03125    0.01563    0.01563    0.01563    0.01563    0.01563
                         0.01563    0.03125    0.01563    0.03125    0.03125    0.03125
                         0.03125    0.01563    0.01563    0.01563    0.01563    0.01563
                         0.01563    0.03125    0.03125    0.01563    0.03125    0.03125
                         0.03125    0.00781    0.01563    0.01563    0.01563    0.00781
                         0.01563    0.01563    0.01563    0.00781    0.01563    0.01563
                         0.01563    0.00781
              wtk2       1.00000    1.00000    1.00000    1.00000    1.00000    1.00000
                         1.00000    1.00000    1.00000    1.00000    1.00000    1.00000
                         1.00000    1.00000    1.00000    1.00000    1.00000    1.00000
                         1.00000    1.00000    1.00000    1.00000    1.00000    1.00000
                         1.00000    1.00000    1.00000    1.00000    1.00000    1.00000
                         1.00000    1.00000    1.00000    1.00000    1.00000    1.00000
                         1.00000    1.00000
           xangst      5.7340460778E-18  1.7183442317E+00  7.9376581289E+00
                       3.4216274956E-17  3.4887595008E+00  7.9376581289E+00
            xcart      1.0835776720E-17  3.2472000000E+00  1.5000000000E+01
                       6.4659388954E-17  6.5928000000E+00  1.5000000000E+01
             xred      3.3000000000E-01  3.3000000000E-01  5.0000000000E-01
                       6.7000000000E-01  6.7000000000E-01  5.0000000000E-01
            znucl       15.00000

================================================================================


- Timing analysis has been suppressed with timopt=0



================================================================================

 Suggested references for the acknowledgment of ABINIT usage.

 The users of ABINIT have little formal obligations with respect to the ABINIT group
 (those specified in the GNU General Public License, http://www.gnu.org/copyleft/gpl.txt).
 However, it is common practice in the scientific literature,
 to acknowledge the efforts of people that have made the research possible.
 In this spirit, please find below suggested citations of work written by ABINIT developers,
 corresponding to implementations inside of ABINIT that you have used in the present run.
 Note also that it will be of great value to readers of publications presenting these results,
 to read papers enabling them to understand the theoretical formalism and details
 of the ABINIT implementation.
 For information on why they are suggested, see also https://docs.abinit.org/theory/acknowledgments.
-
- [1] The Abinit project: Impact, environment and recent developments.
- Computer Phys. Comm. 248, 107042 (2020).
- X.Gonze, B. Amadon, G. Antonius, F.Arnardi, L.Baguet, J.-M.Beuken,
- J.Bieder, F.Bottin, J.Bouchet, E.Bousquet, N.Brouwer, F.Bruneval,
- G.Brunin, T.Cavignac, J.-B. Charraud, Wei Chen, M.Cote, S.Cottenier,
- J.Denier, G.Geneste, Ph.Ghosez, M.Giantomassi, Y.Gillet, O.Gingras,
- D.R.Hamann, G.Hautier, Xu He, N.Helbig, N.Holzwarth, Y.Jia, F.Jollet,
- W.Lafargue-Dit-Hauret, K.Lejaeghere, M.A.L.Marques, A.Martin, C.Martins,
- H.P.C. Miranda, F.Naccarato, K. Persson, G.Petretto, V.Planes, Y.Pouillon,
- S.Prokhorenko, F.Ricci, G.-M.Rignanese, A.H.Romero, M.M.Schmitt, M.Torrent,
- M.J.van Setten, B.Van Troeye, M.J.Verstraete, G.Zerah and J.W.Zwanzig
- Comment: the fifth generic paper describing the ABINIT project.
- Note that a version of this paper, that is not formatted for Computer Phys. Comm. 
- is available at https://www.abinit.org/sites/default/files/ABINIT20.pdf .
- The licence allows the authors to put it on the Web.
- DOI and bibtex: see https://docs.abinit.org/theory/bibliography/#gonze2020
-
- [2] Optimized norm-conserving Vanderbilt pseudopotentials.
- D.R. Hamann, Phys. Rev. B 88, 085117 (2013).
- Comment: Some pseudopotential generated using the ONCVPSP code were used.
- DOI and bibtex: see https://docs.abinit.org/theory/bibliography/#hamann2013
-
- [3] ABINIT: Overview, and focus on selected capabilities
- J. Chem. Phys. 152, 124102 (2020).
- A. Romero, D.C. Allan, B. Amadon, G. Antonius, T. Applencourt, L.Baguet,
- J.Bieder, F.Bottin, J.Bouchet, E.Bousquet, F.Bruneval,
- G.Brunin, D.Caliste, M.Cote,
- J.Denier, C. Dreyer, Ph.Ghosez, M.Giantomassi, Y.Gillet, O.Gingras,
- D.R.Hamann, G.Hautier, F.Jollet, G. Jomard,
- A.Martin, 
- H.P.C. Miranda, F.Naccarato, G.Petretto, N.A. Pike, V.Planes,
- S.Prokhorenko, T. Rangel, F.Ricci, G.-M.Rignanese, M.Royo, M.Stengel, M.Torrent,
- M.J.van Setten, B.Van Troeye, M.J.Verstraete, J.Wiktor, J.W.Zwanziger, and X.Gonze.
- Comment: a global overview of ABINIT, with focus on selected capabilities .
- Note that a version of this paper, that is not formatted for J. Chem. Phys 
- is available at https://www.abinit.org/sites/default/files/ABINIT20_JPC.pdf .
- The licence allows the authors to put it on the Web.
- DOI and bibtex: see https://docs.abinit.org/theory/bibliography/#romero2020
-
- [4] Recent developments in the ABINIT software package.
- Computer Phys. Comm. 205, 106 (2016).
- X.Gonze, F.Jollet, F.Abreu Araujo, D.Adams, B.Amadon, T.Applencourt,
- C.Audouze, J.-M.Beuken, J.Bieder, A.Bokhanchuk, E.Bousquet, F.Bruneval
- D.Caliste, M.Cote, F.Dahm, F.Da Pieve, M.Delaveau, M.Di Gennaro,
- B.Dorado, C.Espejo, G.Geneste, L.Genovese, A.Gerossier, M.Giantomassi,
- Y.Gillet, D.R.Hamann, L.He, G.Jomard, J.Laflamme Janssen, S.Le Roux,
- A.Levitt, A.Lherbier, F.Liu, I.Lukacevic, A.Martin, C.Martins,
- M.J.T.Oliveira, S.Ponce, Y.Pouillon, T.Rangel, G.-M.Rignanese,
- A.H.Romero, B.Rousseau, O.Rubel, A.A.Shukri, M.Stankovski, M.Torrent,
- M.J.Van Setten, B.Van Troeye, M.J.Verstraete, D.Waroquier, J.Wiktor,
- B.Xu, A.Zhou, J.W.Zwanziger.
- Comment: the fourth generic paper describing the ABINIT project.
- Note that a version of this paper, that is not formatted for Computer Phys. Comm. 
- is available at https://www.abinit.org/sites/default/files/ABINIT16.pdf .
- The licence allows the authors to put it on the Web.
- DOI and bibtex: see https://docs.abinit.org/theory/bibliography/#gonze2016
-
- And optionally:
-
- [5] ABINIT: First-principles approach of materials and nanosystem properties.
- Computer Phys. Comm. 180, 2582-2615 (2009).
- X. Gonze, B. Amadon, P.-M. Anglade, J.-M. Beuken, F. Bottin, P. Boulanger, F. Bruneval,
- D. Caliste, R. Caracas, M. Cote, T. Deutsch, L. Genovese, Ph. Ghosez, M. Giantomassi
- S. Goedecker, D.R. Hamann, P. Hermet, F. Jollet, G. Jomard, S. Leroux, M. Mancini, S. Mazevet,
- M.J.T. Oliveira, G. Onida, Y. Pouillon, T. Rangel, G.-M. Rignanese, D. Sangalli, R. Shaltaf,
- M. Torrent, M.J. Verstraete, G. Zerah, J.W. Zwanziger
- Comment: the third generic paper describing the ABINIT project.
- Note that a version of this paper, that is not formatted for Computer Phys. Comm. 
- is available at https://www.abinit.org/sites/default/files/ABINIT_CPC_v10.pdf .
- The licence allows the authors to put it on the Web.
- DOI and bibtex: see https://docs.abinit.org/theory/bibliography/#gonze2009
-
- Proc.   0 individual time (sec): cpu=        997.9  wall=        998.3

================================================================================

 Calculation completed.
.Delivered   4 WARNINGs and   5 COMMENTs to log file.
+Overall time at end (sec) : cpu=        997.9  wall=        998.3
