
.Version 10.0.5 of ABINIT, released Apr 2024.
.(MPI version, prepared for a x86_64_linux_gnu13.2 computer) 

.Copyright (C) 1998-2024 ABINIT group . 
 ABINIT comes with ABSOLUTELY NO WARRANTY.
 It is free software, and you are welcome to redistribute it
 under certain conditions (GNU General Public License,
 see ~abinit/COPYING or http://www.gnu.org/copyleft/gpl.txt).

 ABINIT is a project of the Universite Catholique de Louvain,
 Corning Inc. and other collaborators, see ~abinit/doc/developers/contributors.txt .
 Please read https://docs.abinit.org/theory/acknowledgments for suggested
 acknowledgments of the ABINIT effort.
 For more information, see https://www.abinit.org .

.Starting date : Mon 10 Jun 2024.
- ( at 17h13 )
  
- input  file    -> Boron_Nitride_Output.abi
- output file    -> Boron_Nitride_Output.abo
- root for input  files -> Boron_Nitride_Outputi
- root for output files -> Boron_Nitride_Outputo

 DATASET    1 : space group Cm c m (# 63); Bravais oC (1-face-center ortho.)
================================================================================
 Values of the parameters that define the memory need for DATASET  1.
     intxc =       0    ionmov =       2      iscf =       7    lmnmax =       4
     lnmax =       4     mgfft =     240  mpssoang =       2    mqgrid =   11696
     natom =       4  nloc_mem =       1    nspden =       1   nspinor =       1
    nsppol =       1      nsym =       8    n1xccc =    2501    ntypat =       2
    occopt =       3   xclevel =       2
-    mband =           8        mffmem =           1         mkmem =           7
       mpw =       15372          nfft =      311040          nkpt =           7
================================================================================
P This job should need less than                     117.557 Mbytes of memory.
  Rough estimation (10% accuracy) of disk space for files :
_ WF disk file :     13.137 Mbytes ; DEN or POT disk file :      2.375 Mbytes.
================================================================================

--------------------------------------------------------------------------------
------------- Echo of variables that govern the present computation ------------
--------------------------------------------------------------------------------
-
- outvars: echo of selected default values                                      
-   iomode0 =  0 , fftalg0 =112 , wfoptalg0 =  0
-
- outvars: echo of global parameters not present in the input file              
-  max_nthreads =    0
-
 -outvars: echo values of preprocessed input variables --------
            acell      1.0000000000E+00  1.0000000000E+00  1.0000000000E+00 Bohr
              amu      1.08110000E+01  1.40067400E+01
           diemac      1.00000000E+01
           diemix      7.00000000E-01
             ecut      7.50000000E+01 Hartree
-          fftalg         112
           ionmov           2
           istwfk        1    0    1    0    0    0    1
              ixc          11
           jdtset        1
              kpt      0.00000000E+00  0.00000000E+00  5.00000000E-01
                       2.50000000E-01  0.00000000E+00  5.00000000E-01
                       5.00000000E-01  0.00000000E+00  5.00000000E-01
                       2.50000000E-01  2.50000000E-01  5.00000000E-01
                       5.00000000E-01  2.50000000E-01  5.00000000E-01
                      -2.50000000E-01  2.50000000E-01  5.00000000E-01
                       5.00000000E-01  5.00000000E-01  5.00000000E-01
         kptrlatt        4    0    0      0    4    0      0    0    1
          kptrlen      1.73600000E+01
P           mkmem           7
            natom           4
            nband           8
           ndtset           1
            ngfft          36      36     240
             nkpt           7
            nstep         100
             nsym           8
            ntime        1000
           ntypat           2
              occ      2.000000  2.000000  2.000000  2.000000  2.000000  2.000000
                       2.000000  2.000000
                       2.000000  2.000000  2.000000  2.000000  2.000000  2.000000
                       2.000000  2.000000
                       2.000000  2.000000  2.000000  2.000000  2.000000  2.000000
                       2.000000  2.000000
                       2.000000  2.000000  2.000000  2.000000  2.000000  2.000000
                       2.000000  2.000000
                       2.000000  2.000000  2.000000  2.000000  2.000000  2.000000
                       2.000000  2.000000
                       2.000000  2.000000  2.000000  2.000000  2.000000  2.000000
                       2.000000  2.000000
                       2.000000  2.000000  2.000000  2.000000  2.000000  2.000000
                       2.000000  2.000000
           occopt           3
            rprim      2.1700000000E+00  3.7700000000E+00  0.0000000000E+00
                      -2.1700000000E+00  3.7700000000E+00  0.0000000000E+00
                       0.0000000000E+00  0.0000000000E+00  3.0000000000E+01
           shiftk      0.00000000E+00  0.00000000E+00  5.00000000E-01
          spgroup          63
           symrel      1  0  0   0  1  0   0  0  1      -1  0  0   0 -1  0   0  0 -1
                       0 -1  0  -1  0  0   0  0 -1       0  1  0   1  0  0   0  0  1
                      -1  0  0   0 -1  0   0  0  1       1  0  0   0  1  0   0  0 -1
                       0  1  0   1  0  0   0  0 -1       0 -1  0  -1  0  0   0  0  1
            tnons      0.0000000  0.0000000  0.0000000     0.0000000  0.0000000  0.0000000
                       0.0000000  0.0000000  0.5000000     0.0000000 -0.0000000  0.5000000
                       0.0000000  0.0000000  0.5000000     0.0000000  0.0000000  0.5000000
                       0.0000000 -0.0000000  0.0000000     0.0000000  0.0000000  0.0000000
           toldfe      1.00000000E-08 Hartree
            typat      1  2  1  2
              wtk        0.06250    0.25000    0.12500    0.12500    0.25000    0.12500
                         0.06250
           xangst     -3.9042694450E-01  1.9949980764E+00  3.9688290644E+00
                       3.9042694450E-01  1.9949980764E+00  3.9688290644E+00
                       3.9042694450E-01  1.9949980764E+00  1.1906487193E+01
                      -3.9042694450E-01  1.9949980764E+00  1.1906487193E+01
            xcart     -7.3780000000E-01  3.7700000000E+00  7.5000000000E+00
                       7.3780000000E-01  3.7700000000E+00  7.5000000000E+00
                       7.3780000000E-01  3.7700000000E+00  2.2500000000E+01
                      -7.3780000000E-01  3.7700000000E+00  2.2500000000E+01
             xred      3.3000000000E-01  6.7000000000E-01  2.5000000000E-01
                       6.7000000000E-01  3.3000000000E-01  2.5000000000E-01
                       6.7000000000E-01  3.3000000000E-01  7.5000000000E-01
                       3.3000000000E-01  6.7000000000E-01  7.5000000000E-01
            znucl        5.00000    7.00000

================================================================================

 chkinp: Checking input parameters for consistency, jdtset=   1.

================================================================================
== DATASET  1 ==================================================================
-   mpi_nproc: 1, omp_nthreads: -1 (-1 if OMP is not activated)


--- !DatasetInfo
iteration_state: {dtset: 1, }
dimensions: {natom: 4, nkpt: 7, mband: 8, nsppol: 1, nspinor: 1, nspden: 1, mpw: 15372, }
cutoff_energies: {ecut:  75.0, pawecutdg:  -1.0, }
electrons: {nelect:   1.60000000E+01, charge:   0.00000000E+00, occopt:   3.00000000E+00, tsmear:   1.00000000E-02, }
meta: {optdriver: 0, ionmov: 2, optcell: 0, iscf: 7, paral_kgb: 0, }
...

 Exchange-correlation functional for the present dataset will be:
  GGA: Perdew-Burke-Ernzerhof functional - ixc=11
 Citation for XC functional:
  J.P.Perdew, K.Burke, M.Ernzerhof, PRL 77, 3865 (1996)

 Real(R)+Recip(G) space primitive vectors, cartesian coordinates (Bohr,Bohr^-1):
 R(1)=  2.1700000  3.7700000  0.0000000  G(1)=  0.2304147  0.1326260  0.0000000
 R(2)= -2.1700000  3.7700000  0.0000000  G(2)= -0.2304147  0.1326260  0.0000000
 R(3)=  0.0000000  0.0000000 30.0000000  G(3)=  0.0000000  0.0000000  0.0333333
 Unit cell volume ucvol=  4.9085400E+02 bohr^3
 Angles (23,13,12)=  9.00000000E+01  9.00000000E+01  5.98491875E+01 degrees

 getcut: wavevector=  0.0000  0.0000  0.0000  ngfft=  36  36 240
         ecut(hartree)=     75.000   => boxcut(ratio)=   2.05208

--- Pseudopotential description ------------------------------------------------
- pspini: atom type   1  psp file is /home/hrishi/abinit-10.0.5/Pseudopotentials/B.psp8
- pspatm: opening atomic psp file    /home/hrishi/abinit-10.0.5/Pseudopotentials/B.psp8
- B     ONCVPSP-3.2.3.1  r_core=   1.20849   1.20849
-  5.00000   3.00000    170503                znucl, zion, pspdat
    8   11    1    4       600   0.00000      pspcod,pspxc,lmax,lloc,mmax,r2well
    5.99000000000000    2.90000000000000    0.00000000000000   rchrg,fchrg,qchrg
     nproj     2     2
     extension_switch     1
  pspatm : epsatm=    3.38844677
         --- l  ekb(1:nproj) -->
             0    8.382104    1.234201
             1   -3.719492   -0.867526
 pspatm: atomic psp has been read  and splines computed

- pspini: atom type   2  psp file is /home/hrishi/abinit-10.0.5/Pseudopotentials/N.psp8
- pspatm: opening atomic psp file    /home/hrishi/abinit-10.0.5/Pseudopotentials/N.psp8
- N     ONCVPSP-3.2.3.1  r_core=   1.20551   1.35824
-  7.00000   5.00000    170503                znucl, zion, pspdat
    8   11    1    4       600   0.00000      pspcod,pspxc,lmax,lloc,mmax,r2well
    5.99000000000000    4.00000000000000    0.00000000000000   rchrg,fchrg,qchrg
     nproj     2     2
     extension_switch     1
  pspatm : epsatm=    5.20978323
         --- l  ekb(1:nproj) -->
             0    7.494509    0.636305
             1   -4.293905   -1.006988
 pspatm: atomic psp has been read  and splines computed

   2.75143360E+02                                ecore*ucvol(ha*bohr**3)
--------------------------------------------------------------------------------

_setup2: Arith. and geom. avg. npw (full set) are   15226.750   15226.625

================================================================================

=== [ionmov= 2] Broyden-Fletcher-Goldfard-Shanno method (forces)            
================================================================================

--- Iteration: (   1/1000) Internal Cycle: (1/1)
--------------------------------------------------------------------------------

---SELF-CONSISTENT-FIELD CONVERGENCE--------------------------------------------

--- !BeginCycle
iteration_state: {dtset: 1, itime: 1, icycle: 1, }
solver: {iscf: 7, nstep: 100, nline: 4, wfoptalg: 0, }
tolerances: {toldfe: 1.00E-08, }
...

     iter   Etot(hartree)      deltaE(h)  residm     vres2
 ETOT  1  -23.967142984206    -2.397E+01 3.648E-01 1.727E+04
 ETOT  2  -24.714826430243    -7.477E-01 5.715E-04 2.625E+03
 ETOT  3  -24.723432426704    -8.606E-03 1.218E-04 1.527E+03
 ETOT  4  -24.727496905606    -4.064E-03 1.152E-05 5.584E+02
 ETOT  5  -24.728025958261    -5.291E-04 1.848E-06 2.428E+02
 ETOT  6  -24.728151531709    -1.256E-04 2.897E-07 8.046E+01
 ETOT  7  -24.728167646414    -1.611E-05 5.901E-08 2.031E+01
 ETOT  8  -24.728170420632    -2.774E-06 1.164E-08 3.273E+00
 ETOT  9  -24.728170733695    -3.131E-07 1.730E-09 1.242E-01
 ETOT 10  -24.728170755616    -2.192E-08 2.813E-10 1.594E-02
 ETOT 11  -24.728170761252    -5.636E-09 3.785E-11 4.239E-04
 ETOT 12  -24.728170761797    -5.447E-10 7.681E-12 3.995E-05

 At SCF step   12, etot is converged : 
  for the second time, diff in etot=  5.447E-10 < toldfe=  1.000E-08

 Cartesian components of stress tensor (hartree/bohr^3)
  sigma(1 1)= -1.82451559E-02  sigma(3 2)=  0.00000000E+00
  sigma(2 2)= -1.89743740E-03  sigma(3 1)=  0.00000000E+00
  sigma(3 3)=  2.65465544E-07  sigma(2 1)=  0.00000000E+00


--- !ResultsGS
iteration_state: {dtset: 1, itime: 1, icycle: 1, }
comment   : Summary of ground state results
lattice_vectors:
- [  2.1700000,   3.7700000,   0.0000000, ]
- [ -2.1700000,   3.7700000,   0.0000000, ]
- [  0.0000000,   0.0000000,  30.0000000, ]
lattice_lengths: [   4.34992,    4.34992,   30.00000, ]
lattice_angles: [ 90.000,  90.000,  59.849, ] # degrees, (23, 13, 12)
lattice_volume:   4.9085400E+02
convergence: {deltae: -5.447E-10, res2:  3.995E-05, residm:  7.681E-12, diffor: null, }
etotal    :  -2.47281708E+01
entropy   :   0.00000000E+00
fermie    :   2.12580237E-01
cartesian_stress_tensor: # hartree/bohr^3
- [ -1.82451559E-02,   0.00000000E+00,   0.00000000E+00, ]
- [  0.00000000E+00,  -1.89743740E-03,   0.00000000E+00, ]
- [  0.00000000E+00,   0.00000000E+00,   2.65465544E-07, ]
pressure_GPa:   1.9754E+02
xred      :
- [  3.3000E-01,   6.7000E-01,   2.5000E-01,  B]
- [  6.7000E-01,   3.3000E-01,   2.5000E-01,  N]
- [  6.7000E-01,   3.3000E-01,   7.5000E-01,  B]
- [  3.3000E-01,   6.7000E-01,   7.5000E-01,  N]
cartesian_forces: # hartree/bohr
- [ -3.11251226E+00,  -6.59094785E-17,  -0.00000000E+00, ]
- [  3.11251215E+00,  -3.46584725E-17,  -0.00000000E+00, ]
- [  3.11251226E+00,   1.80318403E-16,  -0.00000000E+00, ]
- [ -3.11251215E+00,  -7.97504519E-17,  -0.00000000E+00, ]
force_length_stats: {min:   3.11251215E+00, max:   3.11251226E+00, mean:   3.11251221E+00, }
...

 Integrated electronic density in atomic spheres:
 ------------------------------------------------
 Atom  Sphere_radius  Integrated_density
    1        2.00000          5.71817432
    2        2.00000          6.50579658
    3        2.00000          5.71817432
    4        2.00000          6.50579658

---OUTPUT-----------------------------------------------------------------------

 Cartesian coordinates (xcart) [bohr]
 -7.37800000000000E-01  3.77000000000000E+00  7.50000000000000E+00
  7.37800000000000E-01  3.77000000000000E+00  7.50000000000000E+00
  7.37800000000000E-01  3.77000000000000E+00  2.25000000000000E+01
 -7.37800000000000E-01  3.77000000000000E+00  2.25000000000000E+01
 Reduced coordinates (xred)
  3.30000000000000E-01  6.70000000000000E-01  2.50000000000000E-01
  6.70000000000000E-01  3.30000000000000E-01  2.50000000000000E-01
  6.70000000000000E-01  3.30000000000000E-01  7.50000000000000E-01
  3.30000000000000E-01  6.70000000000000E-01  7.50000000000000E-01
 Cartesian forces (fcart) [Ha/bohr]; max,rms= 3.11251E+00 1.79701E+00 (free atoms)
 -3.11251226363890E+00 -6.59094785051394E-17 -0.00000000000000E+00
  3.11251214863540E+00 -3.46584724866022E-17 -0.00000000000000E+00
  3.11251226363890E+00  1.80318402926061E-16 -0.00000000000000E+00
 -3.11251214863540E+00 -7.97504519343191E-17 -0.00000000000000E+00
 Gradient of E wrt nuclear positions in reduced coordinates (gred)
  6.75415161209642E+00 -6.75415161209642E+00  0.00000000000000E+00
 -6.75415136253882E+00  6.75415136253882E+00 -0.00000000000000E+00
 -6.75415161209642E+00  6.75415161209642E+00 -0.00000000000000E+00
  6.75415136253882E+00 -6.75415136253882E+00  0.00000000000000E+00
 Total energy (etotal) [Ha]= -2.47281707617967E+01

--- Iteration: (   2/1000) Internal Cycle: (1/1)
--------------------------------------------------------------------------------

---SELF-CONSISTENT-FIELD CONVERGENCE--------------------------------------------

--- !BeginCycle
iteration_state: {dtset: 1, itime: 2, icycle: 1, }
solver: {iscf: 7, nstep: 100, nline: 4, wfoptalg: 0, }
tolerances: {toldfe: 1.00E-08, }
...

     iter   Etot(hartree)      deltaE(h)  residm     vres2
 ETOT  1  -15.032251854591    -1.503E+01 1.256E-01 3.197E+04
 ETOT  2  -18.062099214105    -3.030E+00 4.168E-03 2.412E+03
 ETOT  3  -18.246819611972    -1.847E-01 8.297E-03 2.859E+02
 ETOT  4  -18.254277403123    -7.458E-03 5.272E-04 1.507E+02
 ETOT  5  -18.254821405305    -5.440E-04 8.482E-04 7.626E+01
 ETOT  6  -18.254869550558    -4.815E-05 6.287E-05 1.239E+02
 ETOT  7  -18.254913593271    -4.404E-05 7.417E-05 9.069E+01
 ETOT  8  -18.254944476937    -3.088E-05 2.124E-05 4.901E+01
 ETOT  9  -18.254972878265    -2.840E-05 5.058E-05 2.547E+01
 ETOT 10  -18.254986693780    -1.382E-05 1.433E-05 3.899E+01
 ETOT 11  -18.254997717334    -1.102E-05 3.043E-05 4.121E+01
 ETOT 12  -18.255005088906    -7.372E-06 8.254E-06 1.025E+02
 ETOT 13  -18.255013781366    -8.692E-06 1.641E-05 1.082E+02
 ETOT 14  -18.255019966031    -6.185E-06 4.901E-06 1.009E+02
 ETOT 15  -18.255030469799    -1.050E-05 1.978E-05 9.645E+01
 ETOT 16  -18.255034809840    -4.340E-06 3.393E-06 1.102E+02
 ETOT 17  -18.255043062264    -8.252E-06 1.510E-05 1.100E+02
 ETOT 18  -18.255048096188    -5.034E-06 2.782E-06 1.267E+02
 ETOT 19  -18.255053811220    -5.715E-06 8.405E-06 1.109E+02
 ETOT 20  -18.255061234734    -7.424E-06 6.852E-06 1.342E+02
 ETOT 21  -18.255067582511    -6.348E-06 1.580E-05 1.390E+02
 ETOT 22  -18.255073169811    -5.587E-06 1.317E-05 1.271E+02
 ETOT 23  -18.255079258006    -6.088E-06 2.185E-05 1.392E+02
 ETOT 24  -18.255080184073    -9.261E-07 1.051E-06 2.331E+01
 ETOT 25  -18.255089421971    -9.238E-06 1.059E-05 9.809E+00
 ETOT 26  -18.255090991684    -1.570E-06 7.351E-07 5.791E+00
 ETOT 27  -18.255098676957    -7.685E-06 8.161E-06 1.040E+01
 ETOT 28  -18.255100294466    -1.618E-06 7.657E-07 8.604E+00
 ETOT 29  -18.255100600747    -3.063E-07 5.450E-07 6.795E+00
 ETOT 30  -18.255102286684    -1.686E-06 9.248E-07 7.895E+00
 ETOT 31  -18.255104328265    -2.042E-06 2.735E-06 7.911E+00
 ETOT 32  -18.255105498685    -1.170E-06 8.664E-07 1.028E+01
 ETOT 33  -18.255106681886    -1.183E-06 1.174E-06 1.073E+01
 ETOT 34  -18.255107254300    -5.724E-07 2.859E-07 1.217E+01
 ETOT 35  -18.255109574683    -2.320E-06 2.078E-06 1.443E+01
 ETOT 36  -18.255109249464     3.252E-07 2.803E-07 1.654E+01
 ETOT 37  -18.255110016990    -7.675E-07 1.849E-07 1.623E+01
 ETOT 38  -18.255113121418    -3.104E-06 2.922E-06 1.802E+01
 ETOT 39  -18.255113395235    -2.738E-07 1.156E-06 1.529E+01
 ETOT 40  -18.255116129771    -2.735E-06 2.574E-06 9.915E+00
 ETOT 41  -18.255117324792    -1.195E-06 2.585E-06 5.270E+00
 ETOT 42  -18.255119844980    -2.520E-06 4.681E-06 1.788E+00
 ETOT 43  -18.255121191269    -1.346E-06 3.185E-06 1.176E+00
 ETOT 44  -18.255122363559    -1.172E-06 1.306E-06 2.431E+00
 ETOT 45  -18.255123414493    -1.051E-06 7.117E-06 3.153E+00
 ETOT 46  -18.255125059944    -1.645E-06 2.763E-06 4.346E+00
 ETOT 47  -18.255125408617    -3.487E-07 5.144E-06 4.728E+00
 ETOT 48  -18.255126019002    -6.104E-07 3.398E-06 7.831E+00
 ETOT 49  -18.255124945595     1.073E-06 6.688E-06 8.281E+00
 ETOT 50  -18.255125746547    -8.010E-07 2.589E-06 1.073E+01
 ETOT 51  -18.255123657648     2.089E-06 7.737E-06 1.229E+01
 ETOT 52  -18.255126988335    -3.331E-06 1.285E-06 1.652E+01
 ETOT 53  -18.255116837754     1.015E-05 1.974E-05 2.498E+01
 ETOT 54  -18.255117793823    -9.561E-07 2.872E-06 2.627E+01
 ETOT 55  -18.255112389569     5.404E-06 6.663E-06 2.597E+01
 ETOT 56  -18.255104983609     7.406E-06 5.397E-06 3.177E+01
 ETOT 57  -18.255099921461     5.062E-06 6.113E-06 3.174E+01
 ETOT 58  -18.255083131109     1.679E-05 2.183E-06 4.358E+01
 ETOT 59  -18.255107983091    -2.485E-05 1.061E-04 1.291E+01
 ETOT 60  -18.255127820688    -1.984E-05 2.824E-05 3.033E+00
 ETOT 61  -18.255129098401    -1.278E-06 5.339E-06 2.778E+00
 ETOT 62  -18.255128497049     6.014E-07 4.185E-06 2.536E+00
 ETOT 63  -18.255128783189    -2.861E-07 1.226E-06 2.148E+00
 ETOT 64  -18.255127103412     1.680E-06 2.426E-06 2.818E+00
 ETOT 65  -18.255124553372     2.550E-06 4.017E-06 2.123E+00
 ETOT 66  -18.255126367602    -1.814E-06 1.055E-06 6.359E-01
 ETOT 67  -18.255127572529    -1.205E-06 5.979E-07 1.706E-01
 ETOT 68  -18.255128957195    -1.385E-06 3.512E-06 3.321E-01
 ETOT 69  -18.255129676901    -7.197E-07 4.224E-07 2.370E-01
 ETOT 70  -18.255130388070    -7.112E-07 1.940E-06 9.162E-01
 ETOT 71  -18.255130689375    -3.013E-07 4.433E-07 9.727E-01
 ETOT 72  -18.255130914531    -2.252E-07 2.802E-06 3.035E+00
 ETOT 73  -18.255131092890    -1.784E-07 4.686E-07 3.406E+00
 ETOT 74  -18.255131291462    -1.986E-07 8.948E-07 3.447E+00
 ETOT 75  -18.255131271063     2.040E-08 2.968E-07 3.707E+00
 ETOT 76  -18.255131221348     4.972E-08 9.879E-07 4.311E+00
 ETOT 77  -18.255130698389     5.230E-07 9.680E-07 3.565E+00
 ETOT 78  -18.255130905362    -2.070E-07 9.271E-07 4.268E+00
 ETOT 79  -18.255130688692     2.167E-07 9.159E-07 4.167E+00
 ETOT 80  -18.255132036985    -1.348E-06 1.571E-06 4.178E+00
 ETOT 81  -18.255129812826     2.224E-06 1.754E-06 5.948E+00
 ETOT 82  -18.255130034409    -2.216E-07 1.262E-06 6.748E+00
 ETOT 83  -18.255126523338     3.511E-06 5.547E-07 8.903E+00
 ETOT 84  -18.255125380207     1.143E-06 2.265E-06 1.091E+01
 ETOT 85  -18.255128518621    -3.138E-06 9.137E-08 8.303E+00
 ETOT 86  -18.255131850713    -3.332E-06 3.714E-06 4.709E+00
 ETOT 87  -18.255132279823    -4.291E-07 3.611E-07 4.112E+00
 ETOT 88  -18.255132397386    -1.176E-07 1.024E-07 4.796E+00
 ETOT 89  -18.255132610228    -2.128E-07 3.626E-08 4.155E+00
 ETOT 90  -18.255133843806    -1.234E-06 2.427E-07 1.069E+00
 ETOT 91  -18.255133364724     4.791E-07 8.062E-07 1.827E-01
 ETOT 92  -18.255133665898    -3.012E-07 1.878E-07 2.400E-01
 ETOT 93  -18.255133682731    -1.683E-08 8.442E-08 1.765E-01
 ETOT 94  -18.255133631342     5.139E-08 6.546E-08 1.329E-01
 ETOT 95  -18.255133620629     1.071E-08 2.195E-08 9.851E-02
 ETOT 96  -18.255133636400    -1.577E-08 7.783E-09 2.744E-02
 ETOT 97  -18.255133730698    -9.430E-08 6.710E-08 1.503E-02
 ETOT 98  -18.255133795164    -6.447E-08 2.569E-07 1.211E-02
 ETOT 99  -18.255133852965    -5.780E-08 7.690E-08 2.319E-02
 ETOT  100  -18.255133882968    -3.000E-08 7.775E-08 3.242E-02

 Cartesian components of stress tensor (hartree/bohr^3)
  sigma(1 1)= -4.45742577E-02  sigma(3 2)=  0.00000000E+00
  sigma(2 2)= -1.51648013E-03  sigma(3 1)=  0.00000000E+00
  sigma(3 3)=  2.02324281E-06  sigma(2 1)=  0.00000000E+00


 scprqt:  WARNING -
  nstep=  100 was not enough SCF cycles to converge;
  maximum energy difference=  3.000E-08 exceeds toldfe=  1.000E-08


--- !ResultsGS
iteration_state: {dtset: 1, itime: 2, icycle: 1, }
comment   : Summary of ground state results
lattice_vectors:
- [  2.1700000,   3.7700000,   0.0000000, ]
- [ -2.1700000,   3.7700000,   0.0000000, ]
- [  0.0000000,   0.0000000,  30.0000000, ]
lattice_lengths: [   4.34992,    4.34992,   30.00000, ]
lattice_angles: [ 90.000,  90.000,  59.849, ] # degrees, (23, 13, 12)
lattice_volume:   4.9085400E+02
convergence: {deltae: -3.000E-08, res2:  3.242E-02, residm:  7.775E-08, diffor: null, }
etotal    :  -1.82551339E+01
entropy   :   0.00000000E+00
fermie    :   3.45747667E-01
cartesian_stress_tensor: # hartree/bohr^3
- [ -4.45742577E-02,   0.00000000E+00,   0.00000000E+00, ]
- [  0.00000000E+00,  -1.51648013E-03,   0.00000000E+00, ]
- [  0.00000000E+00,   0.00000000E+00,   2.02324281E-06, ]
pressure_GPa:   4.5199E+02
xred      :
- [ -3.8717E-01,   1.3872E+00,   2.5000E-01,  B]
- [  1.3872E+00,  -3.8717E-01,   2.5000E-01,  N]
- [  1.3872E+00,  -3.8717E-01,   7.5000E-01,  B]
- [ -3.8717E-01,   1.3872E+00,   7.5000E-01,  N]
cartesian_forces: # hartree/bohr
- [  1.12376338E+01,  -1.85774737E-16,  -0.00000000E+00, ]
- [ -1.12376342E+01,  -1.13425963E-16,  -0.00000000E+00, ]
- [ -1.12376338E+01,   1.85774737E-16,  -0.00000000E+00, ]
- [  1.12376342E+01,   1.13425963E-16,  -0.00000000E+00, ]
force_length_stats: {min:   1.12376338E+01, max:   1.12376342E+01, mean:   1.12376340E+01, }
...

 Integrated electronic density in atomic spheres:
 ------------------------------------------------
 Atom  Sphere_radius  Integrated_density
    1        2.00000          6.52959632
    2        2.00000          6.70004239
    3        2.00000          6.52959632
    4        2.00000          6.70004239

---OUTPUT-----------------------------------------------------------------------

 Cartesian coordinates (xcart) [bohr]
 -3.85031226363890E+00  3.77000000000000E+00  7.50000000000000E+00
  3.85031214863540E+00  3.77000000000000E+00  7.50000000000000E+00
  3.85031226363890E+00  3.77000000000000E+00  2.25000000000000E+01
 -3.85031214863540E+00  3.77000000000000E+00  2.25000000000000E+01
 Reduced coordinates (xred)
 -3.87168724340761E-01  1.38716872434076E+00  2.50000000000000E-01
  1.38716869784226E+00 -3.87168697842258E-01  2.50000000000000E-01
  1.38716872434076E+00 -3.87168724340761E-01  7.50000000000000E-01
 -3.87168697842258E-01  1.38716869784226E+00  7.50000000000000E-01
 Cartesian forces (fcart) [Ha/bohr]; max,rms= 1.12376E+01 6.48805E+00 (free atoms)
  1.12376337506338E+01 -1.85774736846482E-16 -0.00000000000000E+00
 -1.12376341631250E+01 -1.13425962687153E-16 -0.00000000000000E+00
 -1.12376337506338E+01  1.85774736846482E-16 -0.00000000000000E+00
  1.12376341631250E+01  1.13425962687153E-16 -0.00000000000000E+00
 Gradient of E wrt nuclear positions in reduced coordinates (gred)
 -2.43856652388753E+01  2.43856652388753E+01 -0.00000000000000E+00
  2.43856661339814E+01 -2.43856661339814E+01  0.00000000000000E+00
  2.43856652388753E+01 -2.43856652388753E+01 -0.00000000000000E+00
 -2.43856661339814E+01  2.43856661339814E+01 -0.00000000000000E+00
 Total energy (etotal) [Ha]= -1.82551338829677E+01

 Difference of energy with previous step (new-old):
           Absolute (Ha)= 6.47304E+00
           Relative     = 3.01188E-01

--- Iteration: (   3/1000) Internal Cycle: (1/1)
--------------------------------------------------------------------------------

---SELF-CONSISTENT-FIELD CONVERGENCE--------------------------------------------

--- !BeginCycle
iteration_state: {dtset: 1, itime: 3, icycle: 1, }
solver: {iscf: 7, nstep: 100, nline: 4, wfoptalg: 0, }
tolerances: {toldfe: 1.00E-08, }
...

     iter   Etot(hartree)      deltaE(h)  residm     vres2
 ETOT  1  -24.736452742129    -2.474E+01 3.239E-02 5.457E+03
 ETOT  2  -24.952975572107    -2.165E-01 9.099E-05 6.142E+02
 ETOT  3  -24.955197376634    -2.222E-03 4.634E-05 1.284E+02
 ETOT  4  -24.955347495885    -1.501E-04 2.084E-06 7.474E+01
 ETOT  5  -24.955423066258    -7.557E-05 2.271E-07 3.627E+01
 ETOT  6  -24.955450953737    -2.789E-05 1.244E-07 3.040E+00
 ETOT  7  -24.955452436025    -1.482E-06 1.418E-08 1.369E-01
 ETOT  8  -24.955452638072    -2.020E-07 1.548E-09 7.207E-03
 ETOT  9  -24.955452657549    -1.948E-08 6.852E-11 5.515E-04
 ETOT 10  -24.955452658701    -1.152E-09 9.613E-12 4.478E-05
 ETOT 11  -24.955452658982    -2.813E-10 8.607E-13 3.688E-06

 At SCF step   11, etot is converged : 
  for the second time, diff in etot=  2.813E-10 < toldfe=  1.000E-08

 Cartesian components of stress tensor (hartree/bohr^3)
  sigma(1 1)= -1.68176124E-02  sigma(3 2)=  0.00000000E+00
  sigma(2 2)= -1.91842590E-03  sigma(3 1)=  0.00000000E+00
  sigma(3 3)=  2.46835134E-07  sigma(2 1)=  0.00000000E+00


--- !ResultsGS
iteration_state: {dtset: 1, itime: 3, icycle: 1, }
comment   : Summary of ground state results
lattice_vectors:
- [  2.1700000,   3.7700000,   0.0000000, ]
- [ -2.1700000,   3.7700000,   0.0000000, ]
- [  0.0000000,   0.0000000,  30.0000000, ]
lattice_lengths: [   4.34992,    4.34992,   30.00000, ]
lattice_angles: [ 90.000,  90.000,  59.849, ] # degrees, (23, 13, 12)
lattice_volume:   4.9085400E+02
convergence: {deltae: -2.813E-10, res2:  3.688E-06, residm:  8.607E-13, diffor: null, }
etotal    :  -2.49554527E+01
entropy   :   0.00000000E+00
fermie    :   2.24187947E-01
cartesian_stress_tensor: # hartree/bohr^3
- [ -1.68176124E-02,   0.00000000E+00,   0.00000000E+00, ]
- [  0.00000000E+00,  -1.91842590E-03,   0.00000000E+00, ]
- [  0.00000000E+00,   0.00000000E+00,   2.46835134E-07, ]
pressure_GPa:   1.8374E+02
xred      :
- [  1.7445E-01,   8.2555E-01,   2.5000E-01,  B]
- [  8.2555E-01,   1.7445E-01,   2.5000E-01,  N]
- [  8.2555E-01,   1.7445E-01,   7.5000E-01,  B]
- [  1.7445E-01,   8.2555E-01,   7.5000E-01,  N]
cartesian_forces: # hartree/bohr
- [  2.77974415E+00,  -7.14353439E-17,  -5.25907270E-32, ]
- [ -2.77974422E+00,   1.18553560E-16,  -5.25907270E-32, ]
- [ -2.77974415E+00,  -4.63602025E-17,   5.25907270E-32, ]
- [  2.77974422E+00,  -7.58014089E-19,   5.25907270E-32, ]
force_length_stats: {min:   2.77974415E+00, max:   2.77974422E+00, mean:   2.77974419E+00, }
...

 Integrated electronic density in atomic spheres:
 ------------------------------------------------
 Atom  Sphere_radius  Integrated_density
    1        2.00000          5.64911566
    2        2.00000          6.48707733
    3        2.00000          5.64911566
    4        2.00000          6.48707733

---OUTPUT-----------------------------------------------------------------------

 Cartesian coordinates (xcart) [bohr]
 -1.41289651751288E+00  3.77000000000000E+00  7.50000000000000E+00
  1.41289631304102E+00  3.77000000000000E+00  7.50000000000000E+00
  1.41289651751288E+00  3.77000000000000E+00  2.25000000000000E+01
 -1.41289631304102E+00  3.77000000000000E+00  2.25000000000000E+01
 Reduced coordinates (xred)
  1.74447807024681E-01  8.25552192975319E-01  2.50000000000000E-01
  8.25552145861986E-01  1.74447854138014E-01  2.50000000000000E-01
  8.25552192975318E-01  1.74447807024681E-01  7.50000000000000E-01
  1.74447854138015E-01  8.25552145861985E-01  7.50000000000000E-01
 Cartesian forces (fcart) [Ha/bohr]; max,rms= 2.77974E+00 1.60489E+00 (free atoms)
  2.77974415250656E+00 -7.14353439099200E-17 -5.25907270147341E-32
 -2.77974422259761E+00  1.18553560468449E-16 -5.25907270147341E-32
 -2.77974415250656E+00 -4.63602024694069E-17  5.25907270147341E-32
  2.77974422259761E+00 -7.58014089122181E-19  5.25907270147341E-32
 Gradient of E wrt nuclear positions in reduced coordinates (gred)
 -6.03204481093923E+00  6.03204481093923E+00  1.57772181044202E-30
  6.03204496303682E+00 -6.03204496303682E+00  1.57772181044202E-30
  6.03204481093923E+00 -6.03204481093923E+00 -1.57772181044202E-30
 -6.03204496303682E+00  6.03204496303682E+00 -1.57772181044202E-30
 Total energy (etotal) [Ha]= -2.49554526589823E+01

 Difference of energy with previous step (new-old):
           Absolute (Ha)=-6.70032E+00
           Relative     =-3.10124E-01

--- Iteration: (   4/1000) Internal Cycle: (1/1)
--------------------------------------------------------------------------------

---SELF-CONSISTENT-FIELD CONVERGENCE--------------------------------------------

--- !BeginCycle
iteration_state: {dtset: 1, itime: 4, icycle: 1, }
solver: {iscf: 7, nstep: 100, nline: 4, wfoptalg: 0, }
tolerances: {toldfe: 1.00E-08, }
...

     iter   Etot(hartree)      deltaE(h)  residm     vres2
 ETOT  1  -20.167770362939    -2.017E+01 3.193E-02 2.489E+04
 ETOT  2  -22.352524904721    -2.185E+00 2.012E-03 1.425E+03
 ETOT  3  -22.442054029740    -8.953E-02 2.696E-03 1.522E+02
 ETOT  4  -22.449641472744    -7.587E-03 5.109E-04 2.603E+01
 ETOT  5  -22.449807004535    -1.655E-04 1.259E-05 1.838E+01
 ETOT  6  -22.449821568169    -1.456E-05 1.929E-07 1.414E+01
 ETOT  7  -22.449837265192    -1.570E-05 8.386E-08 5.959E+00
 ETOT  8  -22.449841334652    -4.069E-06 9.552E-08 2.737E+00
 ETOT  9  -22.449841568881    -2.342E-07 1.150E-09 1.078E+00
 ETOT 10  -22.449842090240    -5.214E-07 2.814E-09 4.326E-01
 ETOT 11  -22.449842363489    -2.732E-07 2.712E-09 7.502E-02
 ETOT 12  -22.449842411479    -4.799E-08 6.068E-10 4.827E-03
 ETOT 13  -22.449842413844    -2.365E-09 2.967E-11 2.045E-03
 ETOT 14  -22.449842413812     3.156E-11 5.539E-12 5.518E-05

 At SCF step   14, etot is converged : 
  for the second time, diff in etot=  3.156E-11 < toldfe=  1.000E-08

 Cartesian components of stress tensor (hartree/bohr^3)
  sigma(1 1)= -3.01678257E-02  sigma(3 2)=  0.00000000E+00
  sigma(2 2)= -1.72565650E-03  sigma(3 1)=  0.00000000E+00
  sigma(3 3)=  1.36349833E-08  sigma(2 1)=  0.00000000E+00


--- !ResultsGS
iteration_state: {dtset: 1, itime: 4, icycle: 1, }
comment   : Summary of ground state results
lattice_vectors:
- [  2.1700000,   3.7700000,   0.0000000, ]
- [ -2.1700000,   3.7700000,   0.0000000, ]
- [  0.0000000,   0.0000000,  30.0000000, ]
lattice_lengths: [   4.34992,    4.34992,   30.00000, ]
lattice_angles: [ 90.000,  90.000,  59.849, ] # degrees, (23, 13, 12)
lattice_volume:   4.9085400E+02
convergence: {deltae:  3.156E-11, res2:  5.518E-05, residm:  5.539E-12, diffor: null, }
etotal    :  -2.24498424E+01
entropy   :   0.00000000E+00
fermie    :   1.85058586E-01
cartesian_stress_tensor: # hartree/bohr^3
- [ -3.01678257E-02,   0.00000000E+00,   0.00000000E+00, ]
- [  0.00000000E+00,  -1.72565650E-03,   0.00000000E+00, ]
- [  0.00000000E+00,   0.00000000E+00,   1.36349833E-08, ]
pressure_GPa:   3.1278E+02
xred      :
- [  3.5903E-01,   6.4097E-01,   2.5000E-01,  B]
- [  6.4097E-01,   3.5903E-01,   2.5000E-01,  N]
- [  6.4097E-01,   3.5903E-01,   7.5000E-01,  B]
- [  3.5903E-01,   6.4097E-01,   7.5000E-01,  N]
cartesian_forces: # hartree/bohr
- [ -6.23980493E+00,  -4.94879007E-17,  -0.00000000E+00, ]
- [  6.23981025E+00,  -1.37512378E-16,  -0.00000000E+00, ]
- [  6.23980493E+00,  -7.50808896E-17,  -0.00000000E+00, ]
- [ -6.23981025E+00,   2.62081168E-16,  -0.00000000E+00, ]
force_length_stats: {min:   6.23980493E+00, max:   6.23981025E+00, mean:   6.23980759E+00, }
...

 Integrated electronic density in atomic spheres:
 ------------------------------------------------
 Atom  Sphere_radius  Integrated_density
    1        2.00000          6.16991948
    2        2.00000          6.63835911
    3        2.00000          6.16991948
    4        2.00000          6.63835911

---OUTPUT-----------------------------------------------------------------------

 Cartesian coordinates (xcart) [bohr]
 -6.11822890732589E-01  3.77000000000000E+00  7.50000000000000E+00
  6.11822699297470E-01  3.77000000000000E+00  7.50000000000000E+00
  6.11822890732588E-01  3.77000000000000E+00  2.25000000000000E+01
 -6.11822699297468E-01  3.77000000000000E+00  2.25000000000000E+01
 Reduced coordinates (xred)
  3.59026983702168E-01  6.40973016297831E-01  2.50000000000000E-01
  6.40972972188357E-01  3.59027027811643E-01  2.50000000000000E-01
  6.40973016297831E-01  3.59026983702168E-01  7.50000000000000E-01
  3.59027027811643E-01  6.40972972188357E-01  7.50000000000000E-01
 Cartesian forces (fcart) [Ha/bohr]; max,rms= 6.23981E+00 3.60255E+00 (free atoms)
 -6.23980493143845E+00 -4.94879007223357E-17 -0.00000000000000E+00
  6.23981025117269E+00 -1.37512377875875E-16 -0.00000000000000E+00
  6.23980493143845E+00 -7.50808895738025E-17 -0.00000000000000E+00
 -6.23981025117269E+00  2.62081168172013E-16 -0.00000000000000E+00
 Gradient of E wrt nuclear positions in reduced coordinates (gred)
  1.35403767012214E+01 -1.35403767012214E+01  0.00000000000000E+00
 -1.35403882450447E+01  1.35403882450447E+01 -0.00000000000000E+00
 -1.35403767012214E+01  1.35403767012214E+01 -0.00000000000000E+00
  1.35403882450447E+01 -1.35403882450447E+01 -0.00000000000000E+00
 Total energy (etotal) [Ha]= -2.24498424138123E+01

 Difference of energy with previous step (new-old):
           Absolute (Ha)= 2.50561E+00
           Relative     = 1.05710E-01

--- Iteration: (   5/1000) Internal Cycle: (1/1)
--------------------------------------------------------------------------------

---SELF-CONSISTENT-FIELD CONVERGENCE--------------------------------------------

--- !BeginCycle
iteration_state: {dtset: 1, itime: 5, icycle: 1, }
solver: {iscf: 7, nstep: 100, nline: 4, wfoptalg: 0, }
tolerances: {toldfe: 1.00E-08, }
...

     iter   Etot(hartree)      deltaE(h)  residm     vres2
 ETOT  1  -25.489725560930    -2.549E+01 6.845E-03 1.009E+04
 ETOT  2  -26.264461828945    -7.747E-01 3.591E-04 1.193E+03
 ETOT  3  -26.297917463429    -3.346E-02 1.845E-03 1.551E+02
 ETOT  4  -26.299349882496    -1.432E-03 2.367E-05 8.595E+01
 ETOT  5  -26.299620889258    -2.710E-04 7.802E-07 4.041E+01
 ETOT  6  -26.299702514434    -8.163E-05 4.190E-07 1.440E+01
 ETOT  7  -26.299716126245    -1.361E-05 7.505E-08 4.708E+00
 ETOT  8  -26.299718274782    -2.149E-06 2.301E-08 6.955E-01
 ETOT  9  -26.299718427701    -1.529E-07 4.114E-09 3.386E-02
 ETOT 10  -26.299718446054    -1.835E-08 5.050E-10 1.058E-02
 ETOT 11  -26.299718459841    -1.379E-08 5.796E-11 3.375E-04
 ETOT 12  -26.299718459922    -8.131E-11 6.138E-12 6.391E-05
 ETOT 13  -26.299718459979    -5.631E-11 1.177E-12 3.402E-06

 At SCF step   13, etot is converged : 
  for the second time, diff in etot=  5.631E-11 < toldfe=  1.000E-08

 Cartesian components of stress tensor (hartree/bohr^3)
  sigma(1 1)= -6.58992038E-03  sigma(3 2)=  0.00000000E+00
  sigma(2 2)= -2.03664695E-03  sigma(3 1)=  0.00000000E+00
  sigma(3 3)=  2.37119203E-07  sigma(2 1)=  0.00000000E+00


--- !ResultsGS
iteration_state: {dtset: 1, itime: 5, icycle: 1, }
comment   : Summary of ground state results
lattice_vectors:
- [  2.1700000,   3.7700000,   0.0000000, ]
- [ -2.1700000,   3.7700000,   0.0000000, ]
- [  0.0000000,   0.0000000,  30.0000000, ]
lattice_lengths: [   4.34992,    4.34992,   30.00000, ]
lattice_angles: [ 90.000,  90.000,  59.849, ] # degrees, (23, 13, 12)
lattice_volume:   4.9085400E+02
convergence: {deltae: -5.631E-11, res2:  3.402E-06, residm:  1.177E-12, diffor: null, }
etotal    :  -2.62997185E+01
entropy   :   0.00000000E+00
fermie    :   3.06887568E-01
cartesian_stress_tensor: # hartree/bohr^3
- [ -6.58992038E-03,   0.00000000E+00,   0.00000000E+00, ]
- [  0.00000000E+00,  -2.03664695E-03,   0.00000000E+00, ]
- [  0.00000000E+00,   0.00000000E+00,   2.37119203E-07, ]
pressure_GPa:   8.4598E+01
xred      :
- [  2.3133E-01,   7.6867E-01,   2.5000E-01,  B]
- [  7.6867E-01,   2.3133E-01,   2.5000E-01,  N]
- [  7.6867E-01,   2.3133E-01,   7.5000E-01,  B]
- [  2.3133E-01,   7.6867E-01,   7.5000E-01,  N]
cartesian_forces: # hartree/bohr
- [  3.90102488E-01,   6.20679362E-18,  -0.00000000E+00, ]
- [ -3.90102385E-01,  -1.95508174E-17,  -0.00000000E+00, ]
- [ -3.90102488E-01,   8.09432193E-18,  -0.00000000E+00, ]
- [  3.90102385E-01,   5.24970189E-18,  -0.00000000E+00, ]
force_length_stats: {min:   3.90102385E-01, max:   3.90102488E-01, mean:   3.90102436E-01, }
...

 Integrated electronic density in atomic spheres:
 ------------------------------------------------
 Atom  Sphere_radius  Integrated_density
    1        2.00000          5.03249534
    2        2.00000          6.36034443
    3        2.00000          5.03249534
    4        2.00000          6.36034443

---OUTPUT-----------------------------------------------------------------------

 Cartesian coordinates (xcart) [bohr]
 -1.16601208383864E+00  3.77000000000000E+00  7.50000000000000E+00
  1.16601347438888E+00  3.77000000000000E+00  7.50000000000000E+00
  1.16601208383864E+00  3.77000000000000E+00  2.25000000000000E+01
 -1.16601347438888E+00  3.77000000000000E+00  2.25000000000000E+01
 Reduced coordinates (xred)
  2.31333621235335E-01  7.68666378764665E-01  2.50000000000000E-01
  7.68666699167945E-01  2.31333300832055E-01  2.50000000000000E-01
  7.68666378764664E-01  2.31333621235335E-01  7.50000000000000E-01
  2.31333300832055E-01  7.68666699167945E-01  7.50000000000000E-01
 Cartesian forces (fcart) [Ha/bohr]; max,rms= 3.90102E-01 2.25226E-01 (free atoms)
  3.90102487680915E-01  6.20679361809248E-18 -0.00000000000000E+00
 -3.90102385232867E-01 -1.95508174430280E-17 -0.00000000000000E+00
 -3.90102487680915E-01  8.09432193452268E-18 -0.00000000000000E+00
  3.90102385232867E-01  5.24970189041279E-18 -0.00000000000000E+00
 Gradient of E wrt nuclear positions in reduced coordinates (gred)
 -8.46522398267586E-01  8.46522398267586E-01 -0.00000000000000E+00
  8.46522175955321E-01 -8.46522175955321E-01  0.00000000000000E+00
  8.46522398267586E-01 -8.46522398267586E-01 -0.00000000000000E+00
 -8.46522175955321E-01  8.46522175955321E-01 -0.00000000000000E+00
 Total energy (etotal) [Ha]= -2.62997184599785E+01

 Difference of energy with previous step (new-old):
           Absolute (Ha)=-3.84988E+00
           Relative     =-1.57945E-01

--- Iteration: (   6/1000) Internal Cycle: (1/1)
--------------------------------------------------------------------------------

---SELF-CONSISTENT-FIELD CONVERGENCE--------------------------------------------

--- !BeginCycle
iteration_state: {dtset: 1, itime: 6, icycle: 1, }
solver: {iscf: 7, nstep: 100, nline: 4, wfoptalg: 0, }
tolerances: {toldfe: 1.00E-08, }
...

     iter   Etot(hartree)      deltaE(h)  residm     vres2
 ETOT  1  -26.333930030041    -2.633E+01 8.156E-06 6.356E+02
 ETOT  2  -26.339528462397    -5.598E-03 1.497E-06 5.393E+01
 ETOT  3  -26.339625822543    -9.736E-05 1.583E-05 1.604E-01
 ETOT  4  -26.339634315725    -8.493E-06 5.183E-07 4.899E-02
 ETOT  5  -26.339635067879    -7.522E-07 8.486E-09 1.343E-02
 ETOT  6  -26.339635097630    -2.975E-08 1.858E-09 7.297E-03
 ETOT  7  -26.339635109113    -1.148E-08 1.265E-10 2.843E-03
 ETOT  8  -26.339635110513    -1.400E-09 3.616E-12 1.501E-03
 ETOT  9  -26.339635111782    -1.269E-09 4.371E-12 1.347E-04

 At SCF step    9, etot is converged : 
  for the second time, diff in etot=  1.269E-09 < toldfe=  1.000E-08

 Cartesian components of stress tensor (hartree/bohr^3)
  sigma(1 1)= -6.20127230E-03  sigma(3 2)=  0.00000000E+00
  sigma(2 2)= -2.03791052E-03  sigma(3 1)=  0.00000000E+00
  sigma(3 3)=  2.73112483E-07  sigma(2 1)=  0.00000000E+00


--- !ResultsGS
iteration_state: {dtset: 1, itime: 6, icycle: 1, }
comment   : Summary of ground state results
lattice_vectors:
- [  2.1700000,   3.7700000,   0.0000000, ]
- [ -2.1700000,   3.7700000,   0.0000000, ]
- [  0.0000000,   0.0000000,  30.0000000, ]
lattice_lengths: [   4.34992,    4.34992,   30.00000, ]
lattice_angles: [ 90.000,  90.000,  59.849, ] # degrees, (23, 13, 12)
lattice_volume:   4.9085400E+02
convergence: {deltae: -1.269E-09, res2:  1.347E-04, residm:  4.371E-12, diffor: null, }
etotal    :  -2.63396351E+01
entropy   :   0.00000000E+00
fermie    :   3.10190821E-01
cartesian_stress_tensor: # hartree/bohr^3
- [ -6.20127230E-03,   0.00000000E+00,   0.00000000E+00, ]
- [  0.00000000E+00,  -2.03791052E-03,   0.00000000E+00, ]
- [  0.00000000E+00,   0.00000000E+00,   2.73112483E-07, ]
pressure_GPa:   8.0799E+01
xred      :
- [  2.3885E-01,   7.6115E-01,   2.5000E-01,  B]
- [  7.6115E-01,   2.3885E-01,   2.5000E-01,  N]
- [  7.6115E-01,   2.3885E-01,   7.5000E-01,  B]
- [  2.3885E-01,   7.6115E-01,   7.5000E-01,  N]
cartesian_forces: # hartree/bohr
- [  2.24695697E-01,   1.17273535E-17,  -2.62953635E-32, ]
- [ -2.24695714E-01,  -6.90509884E-18,   7.88860905E-32, ]
- [ -2.24695697E-01,  -8.04624273E-18,  -2.62953635E-32, ]
- [  2.24695714E-01,   3.22398801E-18,  -2.62953635E-32, ]
force_length_stats: {min:   2.24695697E-01, max:   2.24695714E-01, mean:   2.24695706E-01, }
...

 Integrated electronic density in atomic spheres:
 ------------------------------------------------
 Atom  Sphere_radius  Integrated_density
    1        2.00000          5.00483218
    2        2.00000          6.36141549
    3        2.00000          5.00483218
    4        2.00000          6.36141549

---OUTPUT-----------------------------------------------------------------------

 Cartesian coordinates (xcart) [bohr]
 -1.13340350984103E+00  3.77000000000000E+00  7.50000000000000E+00
  1.13340521673961E+00  3.77000000000000E+00  7.50000000000000E+00
  1.13340350984103E+00  3.77000000000000E+00  2.25000000000000E+01
 -1.13340521673961E+00  3.77000000000000E+00  2.25000000000000E+01
 Reduced coordinates (xred)
  2.38847117548150E-01  7.61152882451850E-01  2.50000000000000E-01
  7.61153275746454E-01  2.38846724253546E-01  2.50000000000000E-01
  7.61152882451850E-01  2.38847117548150E-01  7.50000000000000E-01
  2.38846724253546E-01  7.61153275746454E-01  7.50000000000000E-01
 Cartesian forces (fcart) [Ha/bohr]; max,rms= 2.24696E-01 1.29728E-01 (free atoms)
  2.24695697492738E-01  1.17273535499141E-17 -2.62953635073671E-32
 -2.24695713993534E-01 -6.90509883924879E-18  7.88860905221012E-32
 -2.24695697492738E-01 -8.04624272556016E-18 -2.62953635073671E-32
  2.24695713993534E-01  3.22398801489482E-18 -2.62953635073671E-32
 Gradient of E wrt nuclear positions in reduced coordinates (gred)
 -4.87589663559241E-01  4.87589663559241E-01  7.88860905221012E-31
  4.87589699365968E-01 -4.87589699365968E-01 -2.36658271566304E-30
  4.87589663559241E-01 -4.87589663559241E-01  7.88860905221012E-31
 -4.87589699365968E-01  4.87589699365968E-01  7.88860905221012E-31
 Total energy (etotal) [Ha]= -2.63396351117822E+01

 Difference of energy with previous step (new-old):
           Absolute (Ha)=-3.99167E-02
           Relative     =-1.51661E-03

--- Iteration: (   7/1000) Internal Cycle: (1/1)
--------------------------------------------------------------------------------

---SELF-CONSISTENT-FIELD CONVERGENCE--------------------------------------------

--- !BeginCycle
iteration_state: {dtset: 1, itime: 7, icycle: 1, }
solver: {iscf: 7, nstep: 100, nline: 4, wfoptalg: 0, }
tolerances: {toldfe: 1.00E-08, }
...

     iter   Etot(hartree)      deltaE(h)  residm     vres2
 ETOT  1  -26.350450781859    -2.635E+01 1.666E-05 8.165E+02
 ETOT  2  -26.360809953365    -1.036E-02 2.326E-06 6.695E+01
 ETOT  3  -26.360990741418    -1.808E-04 3.083E-05 2.177E-01
 ETOT  4  -26.361001456987    -1.072E-05 1.059E-06 3.524E-02
 ETOT  5  -26.361002109622    -6.526E-07 2.280E-08 5.166E-03
 ETOT  6  -26.361002136361    -2.674E-08 1.628E-09 1.675E-03
 ETOT  7  -26.361002141170    -4.809E-09 2.251E-10 6.599E-04
 ETOT  8  -26.361002142113    -9.425E-10 4.424E-12 3.037E-04

 At SCF step    8, etot is converged : 
  for the second time, diff in etot=  9.425E-10 < toldfe=  1.000E-08

 Cartesian components of stress tensor (hartree/bohr^3)
  sigma(1 1)= -5.98875568E-03  sigma(3 2)=  0.00000000E+00
  sigma(2 2)= -2.03841531E-03  sigma(3 1)=  0.00000000E+00
  sigma(3 3)=  4.36026424E-07  sigma(2 1)=  0.00000000E+00


--- !ResultsGS
iteration_state: {dtset: 1, itime: 7, icycle: 1, }
comment   : Summary of ground state results
lattice_vectors:
- [  2.1700000,   3.7700000,   0.0000000, ]
- [ -2.1700000,   3.7700000,   0.0000000, ]
- [  0.0000000,   0.0000000,  30.0000000, ]
lattice_lengths: [   4.34992,    4.34992,   30.00000, ]
lattice_angles: [ 90.000,  90.000,  59.849, ] # degrees, (23, 13, 12)
lattice_volume:   4.9085400E+02
convergence: {deltae: -9.425E-10, res2:  3.037E-04, residm:  4.424E-12, diffor: null, }
etotal    :  -2.63610021E+01
entropy   :   0.00000000E+00
fermie    :   3.12026268E-01
cartesian_stress_tensor: # hartree/bohr^3
- [ -5.98875568E-03,   0.00000000E+00,   0.00000000E+00, ]
- [  0.00000000E+00,  -2.03841531E-03,   0.00000000E+00, ]
- [  0.00000000E+00,   0.00000000E+00,   4.36026424E-07, ]
pressure_GPa:   7.8718E+01
xred      :
- [  2.4905E-01,   7.5095E-01,   2.5000E-01,  B]
- [  7.5095E-01,   2.4905E-01,   2.5000E-01,  N]
- [  7.5095E-01,   2.4905E-01,   7.5000E-01,  B]
- [  2.4905E-01,   7.5095E-01,   7.5000E-01,  N]
cartesian_forces: # hartree/bohr
- [  1.86627414E-02,   1.51103747E-19,   5.25907270E-32, ]
- [ -1.86630850E-02,  -8.43933843E-20,  -1.57772181E-31, ]
- [ -1.86627414E-02,  -6.11242600E-19,   5.25907270E-32, ]
- [  1.86630850E-02,   5.44532237E-19,   5.25907270E-32, ]
force_length_stats: {min:   1.86627414E-02, max:   1.86630850E-02, mean:   1.86629132E-02, }
...

 Integrated electronic density in atomic spheres:
 ------------------------------------------------
 Atom  Sphere_radius  Integrated_density
    1        2.00000          4.96845810
    2        2.00000          6.34961238
    3        2.00000          4.96845810
    4        2.00000          6.34961238

---OUTPUT-----------------------------------------------------------------------

 Cartesian coordinates (xcart) [bohr]
 -1.08910669200462E+00  3.77000000000000E+00  7.50000000000000E+00
  1.08910865055848E+00  3.77000000000000E+00  7.50000000000000E+00
  1.08910669200462E+00  3.77000000000000E+00  2.25000000000000E+01
 -1.08910865055848E+00  3.77000000000000E+00  2.25000000000000E+01
 Reduced coordinates (xred)
  2.49053757602623E-01  7.50946242397377E-01  2.50000000000000E-01
  7.50946693677068E-01  2.49053306322932E-01  2.50000000000000E-01
  7.50946242397377E-01  2.49053757602623E-01  7.50000000000000E-01
  2.49053306322932E-01  7.50946693677068E-01  7.50000000000000E-01
 Cartesian forces (fcart) [Ha/bohr]; max,rms= 1.86631E-02 1.07750E-02 (free atoms)
  1.86627414250639E-02  1.51103746582988E-19  5.25907270147341E-32
 -1.86630850383720E-02 -8.43933843322588E-20 -1.57772181044202E-31
 -1.86627414250639E-02 -6.11242599627234E-19  5.25907270147341E-32
  1.86630850383720E-02  5.44532237376505E-19  5.25907270147341E-32
 Gradient of E wrt nuclear positions in reduced coordinates (gred)
 -4.04981488923887E-02  4.04981488923887E-02 -1.57772181044202E-30
  4.04988945332673E-02 -4.04988945332673E-02  4.73316543132607E-30
  4.04981488923887E-02 -4.04981488923887E-02 -1.57772181044202E-30
 -4.04988945332673E-02  4.04988945332673E-02 -1.57772181044202E-30
 Total energy (etotal) [Ha]= -2.63610021421128E+01

 Difference of energy with previous step (new-old):
           Absolute (Ha)=-2.13670E-02
           Relative     =-8.10883E-04

--- Iteration: (   8/1000) Internal Cycle: (1/1)
--------------------------------------------------------------------------------

---SELF-CONSISTENT-FIELD CONVERGENCE--------------------------------------------

--- !BeginCycle
iteration_state: {dtset: 1, itime: 8, icycle: 1, }
solver: {iscf: 7, nstep: 100, nline: 4, wfoptalg: 0, }
tolerances: {toldfe: 1.00E-08, }
...

     iter   Etot(hartree)      deltaE(h)  residm     vres2
 ETOT  1  -26.361066826040    -2.636E+01 1.303E-07 9.723E+01
 ETOT  2  -26.361153781370    -8.696E-05 1.600E-08 8.801E+00
 ETOT  3  -26.361155234299    -1.453E-06 2.672E-07 3.919E-02
 ETOT  4  -26.361155341720    -1.074E-07 1.684E-08 3.915E-03
 ETOT  5  -26.361155357759    -1.604E-08 3.667E-10 1.236E-03
 ETOT  6  -26.361155360490    -2.731E-09 7.974E-11 6.846E-04
 ETOT  7  -26.361155360829    -3.392E-10 4.703E-12 2.970E-04

 At SCF step    7, etot is converged : 
  for the second time, diff in etot=  3.392E-10 < toldfe=  1.000E-08

 Cartesian components of stress tensor (hartree/bohr^3)
  sigma(1 1)= -5.98711623E-03  sigma(3 2)=  0.00000000E+00
  sigma(2 2)= -2.03838594E-03  sigma(3 1)=  0.00000000E+00
  sigma(3 3)=  6.70791406E-08  sigma(2 1)=  0.00000000E+00


--- !ResultsGS
iteration_state: {dtset: 1, itime: 8, icycle: 1, }
comment   : Summary of ground state results
lattice_vectors:
- [  2.1700000,   3.7700000,   0.0000000, ]
- [ -2.1700000,   3.7700000,   0.0000000, ]
- [  0.0000000,   0.0000000,  30.0000000, ]
lattice_lengths: [   4.34992,    4.34992,   30.00000, ]
lattice_angles: [ 90.000,  90.000,  59.849, ] # degrees, (23, 13, 12)
lattice_volume:   4.9085400E+02
convergence: {deltae: -3.392E-10, res2:  2.970E-04, residm:  4.703E-12, diffor: null, }
etotal    :  -2.63611554E+01
entropy   :   0.00000000E+00
fermie    :   3.11974539E-01
cartesian_stress_tensor: # hartree/bohr^3
- [ -5.98711623E-03,   0.00000000E+00,   0.00000000E+00, ]
- [  0.00000000E+00,  -2.03838594E-03,   0.00000000E+00, ]
- [  0.00000000E+00,   0.00000000E+00,   6.70791406E-08, ]
pressure_GPa:   7.8705E+01
xred      :
- [  2.4998E-01,   7.5002E-01,   2.5000E-01,  B]
- [  7.5002E-01,   2.4998E-01,   2.5000E-01,  N]
- [  7.5002E-01,   2.4998E-01,   7.5000E-01,  B]
- [  2.4998E-01,   7.5002E-01,   7.5000E-01,  N]
cartesian_forces: # hartree/bohr
- [  4.26746044E-04,  -5.40728109E-21,  -0.00000000E+00, ]
- [ -4.26837708E-04,   1.20191704E-20,  -0.00000000E+00, ]
- [ -4.26746044E-04,  -1.78238849E-21,  -0.00000000E+00, ]
- [  4.26837708E-04,  -4.82950085E-21,  -0.00000000E+00, ]
force_length_stats: {min:   4.26746044E-04, max:   4.26837708E-04, mean:   4.26791876E-04, }
...

 Integrated electronic density in atomic spheres:
 ------------------------------------------------
 Atom  Sphere_radius  Integrated_density
    1        2.00000          4.96138090
    2        2.00000          6.34810647
    3        2.00000          4.96138090
    4        2.00000          6.34810647

---OUTPUT-----------------------------------------------------------------------

 Cartesian coordinates (xcart) [bohr]
 -1.08509437334693E+00  3.77000000000000E+00  7.50000000000000E+00
  1.08509598145240E+00  3.77000000000000E+00  7.50000000000000E+00
  1.08509437334693E+00  3.77000000000000E+00  2.25000000000000E+01
 -1.08509598145240E+00  3.77000000000000E+00  2.25000000000000E+01
 Reduced coordinates (xred)
  2.49978254989186E-01  7.50021745010814E-01  2.50000000000000E-01
  7.50022115542027E-01  2.49977884457973E-01  2.50000000000000E-01
  7.50021745010814E-01  2.49978254989186E-01  7.50000000000000E-01
  2.49977884457973E-01  7.50022115542027E-01  7.50000000000000E-01
 Cartesian forces (fcart) [Ha/bohr]; max,rms= 4.26838E-04 2.46408E-04 (free atoms)
  4.26746044134337E-04 -5.40728109154636E-21 -0.00000000000000E+00
 -4.26837708164506E-04  1.20191704249428E-20 -0.00000000000000E+00
 -4.26746044134337E-04 -1.78238848726998E-21 -0.00000000000000E+00
  4.26837708164506E-04 -4.82950084612647E-21 -0.00000000000000E+00
 Gradient of E wrt nuclear positions in reduced coordinates (gred)
 -9.26038915771512E-04  9.26038915771512E-04 -0.00000000000000E+00
  9.26237826716978E-04 -9.26237826716978E-04 -0.00000000000000E+00
  9.26038915771512E-04 -9.26038915771512E-04  0.00000000000000E+00
 -9.26237826716978E-04  9.26237826716978E-04 -0.00000000000000E+00
 Total energy (etotal) [Ha]= -2.63611553608293E+01

 Difference of energy with previous step (new-old):
           Absolute (Ha)=-1.53219E-04
           Relative     =-5.81231E-06

--- Iteration: (   9/1000) Internal Cycle: (1/1)
--------------------------------------------------------------------------------

---SELF-CONSISTENT-FIELD CONVERGENCE--------------------------------------------

--- !BeginCycle
iteration_state: {dtset: 1, itime: 9, icycle: 1, }
solver: {iscf: 7, nstep: 100, nline: 4, wfoptalg: 0, }
tolerances: {toldfe: 1.00E-08, }
...

     iter   Etot(hartree)      deltaE(h)  residm     vres2
 ETOT  1  -26.361155394359    -2.636E+01 7.259E-11 2.903E+01
 ETOT  2  -26.361155442447    -4.809E-08 8.994E-12 2.897E+00
 ETOT  3  -26.361155443268    -8.205E-10 1.490E-10 4.264E-02
 ETOT  4  -26.361155443322    -5.448E-11 1.063E-11 1.754E-03

 At SCF step    4, etot is converged : 
  for the second time, diff in etot=  5.448E-11 < toldfe=  1.000E-08

 Cartesian components of stress tensor (hartree/bohr^3)
  sigma(1 1)= -5.98716179E-03  sigma(3 2)=  0.00000000E+00
  sigma(2 2)= -2.03839927E-03  sigma(3 1)=  0.00000000E+00
  sigma(3 3)=  2.27754600E-07  sigma(2 1)=  0.00000000E+00


--- !ResultsGS
iteration_state: {dtset: 1, itime: 9, icycle: 1, }
comment   : Summary of ground state results
lattice_vectors:
- [  2.1700000,   3.7700000,   0.0000000, ]
- [ -2.1700000,   3.7700000,   0.0000000, ]
- [  0.0000000,   0.0000000,  30.0000000, ]
lattice_lengths: [   4.34992,    4.34992,   30.00000, ]
lattice_angles: [ 90.000,  90.000,  59.849, ] # degrees, (23, 13, 12)
lattice_volume:   4.9085400E+02
convergence: {deltae: -5.448E-11, res2:  1.754E-03, residm:  1.063E-11, diffor: null, }
etotal    :  -2.63611554E+01
entropy   :   0.00000000E+00
fermie    :   3.12002443E-01
cartesian_stress_tensor: # hartree/bohr^3
- [ -5.98716179E-03,   0.00000000E+00,   0.00000000E+00, ]
- [  0.00000000E+00,  -2.03839927E-03,   0.00000000E+00, ]
- [  0.00000000E+00,   0.00000000E+00,   2.27754600E-07, ]
pressure_GPa:   7.8704E+01
xred      :
- [  2.5000E-01,   7.5000E-01,   2.5000E-01,  B]
- [  7.5000E-01,   2.5000E-01,   2.5000E-01,  N]
- [  7.5000E-01,   2.5000E-01,   7.5000E-01,  B]
- [  2.5000E-01,   7.5000E-01,   7.5000E-01,  N]
cartesian_forces: # hartree/bohr
- [  9.81835893E-06,   3.65427654E-22,  -0.00000000E+00, ]
- [ -9.62747926E-06,  -5.67264242E-22,  -0.00000000E+00, ]
- [ -9.81835893E-06,   7.19201405E-22,  -0.00000000E+00, ]
- [  9.62747926E-06,  -5.17364817E-22,  -0.00000000E+00, ]
force_length_stats: {min:   9.62747926E-06, max:   9.81835893E-06, mean:   9.72291910E-06, }
...

 Integrated electronic density in atomic spheres:
 ------------------------------------------------
 Atom  Sphere_radius  Integrated_density
    1        2.00000          4.96137346
    2        2.00000          6.34809708
    3        2.00000          4.96137346
    4        2.00000          6.34809708

---OUTPUT-----------------------------------------------------------------------

 Cartesian coordinates (xcart) [bohr]
 -1.08500051331260E+00  3.77000000000000E+00  7.50000000000000E+00
  1.08500202744880E+00  3.77000000000000E+00  7.50000000000000E+00
  1.08500051331260E+00  3.77000000000000E+00  2.25000000000000E+01
 -1.08500202744880E+00  3.77000000000000E+00  2.25000000000000E+01
 Reduced coordinates (xred)
  2.49999881725207E-01  7.50000118274793E-01  2.50000000000000E-01
  7.50000467154101E-01  2.49999532845899E-01  2.50000000000000E-01
  7.50000118274793E-01  2.49999881725207E-01  7.50000000000000E-01
  2.49999532845899E-01  7.50000467154101E-01  7.50000000000000E-01
 Cartesian forces (fcart) [Ha/bohr]; max,rms= 9.81836E-06 5.61380E-06 (free atoms)
  9.81835893078842E-06  3.65427654328003E-22 -0.00000000000000E+00
 -9.62747925995582E-06 -5.67264241881540E-22 -0.00000000000000E+00
 -9.81835893078842E-06  7.19201404788743E-22 -0.00000000000000E+00
  9.62747925995582E-06 -5.17364817235207E-22 -0.00000000000000E+00
 Gradient of E wrt nuclear positions in reduced coordinates (gred)
 -2.13058388798109E-05  2.13058388798109E-05 -0.00000000000000E+00
  2.08916299941041E-05 -2.08916299941041E-05  0.00000000000000E+00
  2.13058388798109E-05 -2.13058388798109E-05 -0.00000000000000E+00
 -2.08916299941041E-05  2.08916299941041E-05 -0.00000000000000E+00
 Total energy (etotal) [Ha]= -2.63611554433223E+01

 Difference of energy with previous step (new-old):
           Absolute (Ha)=-8.24930E-08
           Relative     =-3.12934E-09

 At Broyd/MD step   9, gradients are converged : 
  max grad (force/stress) = 9.8184E-06 < tolmxf= 5.0000E-05 ha/bohr (free atoms)

================================================================================

 ----iterations are completed or convergence reached----

 Mean square residual over all n,k,spin=   50.120E-13; max=  10.633E-12
 reduced coordinates (array xred) for    4 atoms
       0.249999881725      0.750000118275      0.250000000000
       0.750000467154      0.249999532846      0.250000000000
       0.750000118275      0.249999881725      0.750000000000
       0.249999532846      0.750000467154      0.750000000000
 rms dE/dt=  1.7228E-05; max dE/dt=  2.1306E-05; dE/dt below (all hartree)
    1      -0.000021305839      0.000021305839      0.000000000000
    2       0.000020891630     -0.000020891630      0.000000000000
    3       0.000021305839     -0.000021305839      0.000000000000
    4      -0.000020891630      0.000020891630      0.000000000000

 cartesian coordinates (angstrom) at end:
    1     -0.57415754295348     1.99499807638430     3.96882906442500
    2      0.57415834419985     1.99499807638430     3.96882906442500
    3      0.57415754295348     1.99499807638430    11.90648719327500
    4     -0.57415834419985     1.99499807638430    11.90648719327500

 cartesian forces (hartree/bohr) at end:
    1      0.00000981835893     0.00000000000000    -0.00000000000000
    2     -0.00000962747926    -0.00000000000000    -0.00000000000000
    3     -0.00000981835893     0.00000000000000    -0.00000000000000
    4      0.00000962747926    -0.00000000000000    -0.00000000000000
 frms,max,avg= 5.6138004E-06 9.8183589E-06   0.000E+00  0.000E+00  0.000E+00 h/b

 cartesian forces (eV/Angstrom) at end:
    1      0.00050488027338     0.00000000000000    -0.00000000000000
    2     -0.00049506484689    -0.00000000000000    -0.00000000000000
    3     -0.00050488027338     0.00000000000000    -0.00000000000000
    4      0.00049506484689    -0.00000000000000    -0.00000000000000
 frms,max,avg= 2.8867320E-04 5.0488027E-04   0.000E+00  0.000E+00  0.000E+00 e/A
 length scales=  1.000000000000  1.000000000000  1.000000000000 bohr
              =  0.529177208590  0.529177208590  0.529177208590 angstroms
 prteigrs : about to open file Boron_Nitride_Outputo_DS1_EIG
 Fermi (or HOMO) energy (hartree) =   0.31200   Average Vxc (hartree)=  -0.19660
 Eigenvalues (hartree) for nkpt=   7  k points:
 kpt#   1, nband=  8, wtk=  0.06250, kpt=  0.0000  0.0000  0.5000 (reduced coord)
  -0.74527   -0.74527   -0.32020   -0.32020   -0.30831   -0.30831    0.03354    0.03354
      occupation numbers for kpt#   1
   2.00000    2.00000    2.00000    2.00000    2.00000    2.00000    2.00000    2.00000
 prteigrs : prtvol=0 or 1, do not print more k-points.


--- !EnergyTerms
iteration_state     : {dtset: 1, itime: 9, icycle: 1, }
comment             : Components of total free energy in Hartree
kinetic             :  2.10524830967266E+01
hartree             :  4.16419048298842E+01
xc                  : -9.19074944580078E+00
Ewald energy        :  1.88157368581303E+01
psp_core            :  5.60540119537674E-01
local_psp           : -9.67936979650345E+01
non_local_psp       : -2.44737293676582E+00
internal            : -2.63611554433223E+01
'-kT*entropy'       : -4.40593893500223E-14
total_energy        : -2.63611554433223E+01
total_energy_eV     : -7.17323519761372E+02
band_energy         : -5.37641442604232E+00
...

 rms coord change=  6.5320E-02   atom, delta coord (reduced):
     1       -0.080000118275      0.080000118275      0.000000000000
     2        0.080000467154     -0.080000467154      0.000000000000
     3        0.080000118275     -0.080000118275      0.000000000000
     4       -0.080000467154      0.080000467154      0.000000000000

 Cartesian components of stress tensor (hartree/bohr^3)
  sigma(1 1)= -5.98716179E-03  sigma(3 2)=  0.00000000E+00
  sigma(2 2)= -2.03839927E-03  sigma(3 1)=  0.00000000E+00
  sigma(3 3)=  2.27754600E-07  sigma(2 1)=  0.00000000E+00

-Cartesian components of stress tensor (GPa)         [Pressure=  7.8704E+01 GPa]
- sigma(1 1)= -1.76148352E+02  sigma(3 2)=  0.00000000E+00
- sigma(2 2)= -5.99717668E+01  sigma(3 1)=  0.00000000E+00
- sigma(3 3)=  6.70077055E-03  sigma(2 1)=  0.00000000E+00

== END DATASET(S) ==============================================================
================================================================================
  
 -outvars: echo values of variables after computation  --------
            acell      1.0000000000E+00  1.0000000000E+00  1.0000000000E+00 Bohr
              amu      1.08110000E+01  1.40067400E+01
           diemac      1.00000000E+01
           diemix      7.00000000E-01
             ecut      7.50000000E+01 Hartree
           etotal1    -2.6361155443E+01
            fcart1     9.8183589308E-06  3.6542765433E-22 -0.0000000000E+00
                      -9.6274792600E-06 -5.6726424188E-22 -0.0000000000E+00
                      -9.8183589308E-06  7.1920140479E-22 -0.0000000000E+00
                       9.6274792600E-06 -5.1736481724E-22 -0.0000000000E+00
-          fftalg         112
           ionmov           2
           istwfk        1    0    1    0    0    0    1
              ixc          11
           jdtset        1
              kpt      0.00000000E+00  0.00000000E+00  5.00000000E-01
                       2.50000000E-01  0.00000000E+00  5.00000000E-01
                       5.00000000E-01  0.00000000E+00  5.00000000E-01
                       2.50000000E-01  2.50000000E-01  5.00000000E-01
                       5.00000000E-01  2.50000000E-01  5.00000000E-01
                      -2.50000000E-01  2.50000000E-01  5.00000000E-01
                       5.00000000E-01  5.00000000E-01  5.00000000E-01
         kptrlatt        4    0    0      0    4    0      0    0    1
          kptrlen      1.73600000E+01
P           mkmem           7
            natom           4
            nband           8
           ndtset           1
            ngfft          36      36     240
             nkpt           7
            nstep         100
             nsym           8
            ntime        1000
           ntypat           2
              occ      2.000000  2.000000  2.000000  2.000000  2.000000  2.000000
                       2.000000  2.000000
                       2.000000  2.000000  2.000000  2.000000  2.000000  2.000000
                       2.000000  2.000000
                       2.000000  2.000000  2.000000  2.000000  2.000000  2.000000
                       2.000000  2.000000
                       2.000000  2.000000  2.000000  2.000000  2.000000  2.000000
                       2.000000  2.000000
                       2.000000  2.000000  2.000000  2.000000  2.000000  2.000000
                       2.000000  2.000000
                       2.000000  2.000000  2.000000  2.000000  2.000000  2.000000
                       2.000000  2.000000
                       2.000000  2.000000  2.000000  2.000000  2.000000  2.000000
                       2.000000  2.000000
           occopt           3
            rprim      2.1700000000E+00  3.7700000000E+00  0.0000000000E+00
                      -2.1700000000E+00  3.7700000000E+00  0.0000000000E+00
                       0.0000000000E+00  0.0000000000E+00  3.0000000000E+01
           shiftk      0.00000000E+00  0.00000000E+00  5.00000000E-01
          spgroup          63
           strten1    -5.9871617924E-03 -2.0383992659E-03  2.2775460026E-07
                       0.0000000000E+00  0.0000000000E+00  0.0000000000E+00
           symrel      1  0  0   0  1  0   0  0  1      -1  0  0   0 -1  0   0  0 -1
                       0 -1  0  -1  0  0   0  0 -1       0  1  0   1  0  0   0  0  1
                      -1  0  0   0 -1  0   0  0  1       1  0  0   0  1  0   0  0 -1
                       0  1  0   1  0  0   0  0 -1       0 -1  0  -1  0  0   0  0  1
            tnons      0.0000000  0.0000000  0.0000000     0.0000000  0.0000000  0.0000000
                       0.0000000  0.0000000  0.5000000     0.0000000 -0.0000000  0.5000000
                       0.0000000  0.0000000  0.5000000     0.0000000  0.0000000  0.5000000
                       0.0000000 -0.0000000  0.0000000     0.0000000  0.0000000  0.0000000
           toldfe      1.00000000E-08 Hartree
            typat      1  2  1  2
              wtk        0.06250    0.25000    0.12500    0.12500    0.25000    0.12500
                         0.06250
           xangst     -5.7415754295E-01  1.9949980764E+00  3.9688290644E+00
                       5.7415834420E-01  1.9949980764E+00  3.9688290644E+00
                       5.7415754295E-01  1.9949980764E+00  1.1906487193E+01
                      -5.7415834420E-01  1.9949980764E+00  1.1906487193E+01
            xcart     -1.0850005133E+00  3.7700000000E+00  7.5000000000E+00
                       1.0850020274E+00  3.7700000000E+00  7.5000000000E+00
                       1.0850005133E+00  3.7700000000E+00  2.2500000000E+01
                      -1.0850020274E+00  3.7700000000E+00  2.2500000000E+01
             xred      2.4999988173E-01  7.5000011827E-01  2.5000000000E-01
                       7.5000046715E-01  2.4999953285E-01  2.5000000000E-01
                       7.5000011827E-01  2.4999988173E-01  7.5000000000E-01
                       2.4999953285E-01  7.5000046715E-01  7.5000000000E-01
            znucl        5.00000    7.00000

================================================================================

 The spacegroup number, the magnetic point group, and/or the number of symmetries
 have changed between the initial recognition based on the input file
 and a postprocessing based on the final acell, rprim, and xred.
 More details in the log file.


- Timing analysis has been suppressed with timopt=0



================================================================================

 Suggested references for the acknowledgment of ABINIT usage.

 The users of ABINIT have little formal obligations with respect to the ABINIT group
 (those specified in the GNU General Public License, http://www.gnu.org/copyleft/gpl.txt).
 However, it is common practice in the scientific literature,
 to acknowledge the efforts of people that have made the research possible.
 In this spirit, please find below suggested citations of work written by ABINIT developers,
 corresponding to implementations inside of ABINIT that you have used in the present run.
 Note also that it will be of great value to readers of publications presenting these results,
 to read papers enabling them to understand the theoretical formalism and details
 of the ABINIT implementation.
 For information on why they are suggested, see also https://docs.abinit.org/theory/acknowledgments.
-
- [1] The Abinit project: Impact, environment and recent developments.
- Computer Phys. Comm. 248, 107042 (2020).
- X.Gonze, B. Amadon, G. Antonius, F.Arnardi, L.Baguet, J.-M.Beuken,
- J.Bieder, F.Bottin, J.Bouchet, E.Bousquet, N.Brouwer, F.Bruneval,
- G.Brunin, T.Cavignac, J.-B. Charraud, Wei Chen, M.Cote, S.Cottenier,
- J.Denier, G.Geneste, Ph.Ghosez, M.Giantomassi, Y.Gillet, O.Gingras,
- D.R.Hamann, G.Hautier, Xu He, N.Helbig, N.Holzwarth, Y.Jia, F.Jollet,
- W.Lafargue-Dit-Hauret, K.Lejaeghere, M.A.L.Marques, A.Martin, C.Martins,
- H.P.C. Miranda, F.Naccarato, K. Persson, G.Petretto, V.Planes, Y.Pouillon,
- S.Prokhorenko, F.Ricci, G.-M.Rignanese, A.H.Romero, M.M.Schmitt, M.Torrent,
- M.J.van Setten, B.Van Troeye, M.J.Verstraete, G.Zerah and J.W.Zwanzig
- Comment: the fifth generic paper describing the ABINIT project.
- Note that a version of this paper, that is not formatted for Computer Phys. Comm. 
- is available at https://www.abinit.org/sites/default/files/ABINIT20.pdf .
- The licence allows the authors to put it on the Web.
- DOI and bibtex: see https://docs.abinit.org/theory/bibliography/#gonze2020
-
- [2] Optimized norm-conserving Vanderbilt pseudopotentials.
- D.R. Hamann, Phys. Rev. B 88, 085117 (2013).
- Comment: Some pseudopotential generated using the ONCVPSP code were used.
- DOI and bibtex: see https://docs.abinit.org/theory/bibliography/#hamann2013
-
- [3] ABINIT: Overview, and focus on selected capabilities
- J. Chem. Phys. 152, 124102 (2020).
- A. Romero, D.C. Allan, B. Amadon, G. Antonius, T. Applencourt, L.Baguet,
- J.Bieder, F.Bottin, J.Bouchet, E.Bousquet, F.Bruneval,
- G.Brunin, D.Caliste, M.Cote,
- J.Denier, C. Dreyer, Ph.Ghosez, M.Giantomassi, Y.Gillet, O.Gingras,
- D.R.Hamann, G.Hautier, F.Jollet, G. Jomard,
- A.Martin, 
- H.P.C. Miranda, F.Naccarato, G.Petretto, N.A. Pike, V.Planes,
- S.Prokhorenko, T. Rangel, F.Ricci, G.-M.Rignanese, M.Royo, M.Stengel, M.Torrent,
- M.J.van Setten, B.Van Troeye, M.J.Verstraete, J.Wiktor, J.W.Zwanziger, and X.Gonze.
- Comment: a global overview of ABINIT, with focus on selected capabilities .
- Note that a version of this paper, that is not formatted for J. Chem. Phys 
- is available at https://www.abinit.org/sites/default/files/ABINIT20_JPC.pdf .
- The licence allows the authors to put it on the Web.
- DOI and bibtex: see https://docs.abinit.org/theory/bibliography/#romero2020
-
- [4] Recent developments in the ABINIT software package.
- Computer Phys. Comm. 205, 106 (2016).
- X.Gonze, F.Jollet, F.Abreu Araujo, D.Adams, B.Amadon, T.Applencourt,
- C.Audouze, J.-M.Beuken, J.Bieder, A.Bokhanchuk, E.Bousquet, F.Bruneval
- D.Caliste, M.Cote, F.Dahm, F.Da Pieve, M.Delaveau, M.Di Gennaro,
- B.Dorado, C.Espejo, G.Geneste, L.Genovese, A.Gerossier, M.Giantomassi,
- Y.Gillet, D.R.Hamann, L.He, G.Jomard, J.Laflamme Janssen, S.Le Roux,
- A.Levitt, A.Lherbier, F.Liu, I.Lukacevic, A.Martin, C.Martins,
- M.J.T.Oliveira, S.Ponce, Y.Pouillon, T.Rangel, G.-M.Rignanese,
- A.H.Romero, B.Rousseau, O.Rubel, A.A.Shukri, M.Stankovski, M.Torrent,
- M.J.Van Setten, B.Van Troeye, M.J.Verstraete, D.Waroquier, J.Wiktor,
- B.Xu, A.Zhou, J.W.Zwanziger.
- Comment: the fourth generic paper describing the ABINIT project.
- Note that a version of this paper, that is not formatted for Computer Phys. Comm. 
- is available at https://www.abinit.org/sites/default/files/ABINIT16.pdf .
- The licence allows the authors to put it on the Web.
- DOI and bibtex: see https://docs.abinit.org/theory/bibliography/#gonze2016
-
- And optionally:
-
- [5] ABINIT: First-principles approach of materials and nanosystem properties.
- Computer Phys. Comm. 180, 2582-2615 (2009).
- X. Gonze, B. Amadon, P.-M. Anglade, J.-M. Beuken, F. Bottin, P. Boulanger, F. Bruneval,
- D. Caliste, R. Caracas, M. Cote, T. Deutsch, L. Genovese, Ph. Ghosez, M. Giantomassi
- S. Goedecker, D.R. Hamann, P. Hermet, F. Jollet, G. Jomard, S. Leroux, M. Mancini, S. Mazevet,
- M.J.T. Oliveira, G. Onida, Y. Pouillon, T. Rangel, G.-M. Rignanese, D. Sangalli, R. Shaltaf,
- M. Torrent, M.J. Verstraete, G. Zerah, J.W. Zwanziger
- Comment: the third generic paper describing the ABINIT project.
- Note that a version of this paper, that is not formatted for Computer Phys. Comm. 
- is available at https://www.abinit.org/sites/default/files/ABINIT_CPC_v10.pdf .
- The licence allows the authors to put it on the Web.
- DOI and bibtex: see https://docs.abinit.org/theory/bibliography/#gonze2009
-
- Proc.   0 individual time (sec): cpu=        416.6  wall=        417.0

================================================================================

 Calculation completed.
.Delivered 179 WARNINGs and   4 COMMENTs to log file.
+Overall time at end (sec) : cpu=        416.6  wall=        417.0
