
.Version 10.0.5 of ABINIT, released Apr 2024.
.(MPI version, prepared for a x86_64_linux_gnu13.2 computer) 

.Copyright (C) 1998-2024 ABINIT group . 
 ABINIT comes with ABSOLUTELY NO WARRANTY.
 It is free software, and you are welcome to redistribute it
 under certain conditions (GNU General Public License,
 see ~abinit/COPYING or http://www.gnu.org/copyleft/gpl.txt).

 ABINIT is a project of the Universite Catholique de Louvain,
 Corning Inc. and other collaborators, see ~abinit/doc/developers/contributors.txt .
 Please read https://docs.abinit.org/theory/acknowledgments for suggested
 acknowledgments of the ABINIT effort.
 For more information, see https://www.abinit.org .

.Starting date : Mon 10 Jun 2024.
- ( at 14h42 )
  
- input  file    -> hBN.abi
- output file    -> hBN.abo
- root for input  files -> hBNi
- root for output files -> hBNo

 DATASET    1 : space group Cm c m (# 63); Bravais oC (1-face-center ortho.)
================================================================================
 Values of the parameters that define the memory need for DATASET  1.
     intxc =       0    ionmov =       2      iscf =       7    lmnmax =       6
     lnmax =       6     mgfft =     240  mpssoang =       3    mqgrid =   11696
     natom =       4  nloc_mem =       1    nspden =       1   nspinor =       1
    nsppol =       1      nsym =       8    n1xccc =    2501    ntypat =       2
    occopt =       3   xclevel =       2
-    mband =           8        mffmem =           1         mkmem =          14
       mpw =       22759          nfft =      486000          nkpt =          14
================================================================================
P This job should need less than                     202.242 Mbytes of memory.
  Rough estimation (10% accuracy) of disk space for files :
_ WF disk file :     38.897 Mbytes ; DEN or POT disk file :      3.710 Mbytes.
================================================================================

--------------------------------------------------------------------------------
------------- Echo of variables that govern the present computation ------------
--------------------------------------------------------------------------------
-
- outvars: echo of selected default values                                      
-   iomode0 =  0 , fftalg0 =112 , wfoptalg0 =  0
-
- outvars: echo of global parameters not present in the input file              
-  max_nthreads =    0
-
 -outvars: echo values of preprocessed input variables --------
            acell      1.0000000000E+00  1.0000000000E+00  1.0000000000E+00 Bohr
              amu      2.80855000E+01  1.20110000E+01
           diemac      1.00000000E+01
           diemix      7.00000000E-01
             ecut      7.50000000E+01 Hartree
-          fftalg         112
           ionmov           2
              ixc          11
           jdtset        1
              kpt      0.00000000E+00  0.00000000E+00  1.25000000E-01
                       2.50000000E-01  0.00000000E+00  1.25000000E-01
                       5.00000000E-01  0.00000000E+00  1.25000000E-01
                       2.50000000E-01  2.50000000E-01  1.25000000E-01
                       5.00000000E-01  2.50000000E-01  1.25000000E-01
                      -2.50000000E-01  2.50000000E-01  1.25000000E-01
                       5.00000000E-01  5.00000000E-01  1.25000000E-01
                       0.00000000E+00  0.00000000E+00  3.75000000E-01
                       2.50000000E-01  0.00000000E+00  3.75000000E-01
                       5.00000000E-01  0.00000000E+00  3.75000000E-01
                       2.50000000E-01  2.50000000E-01  3.75000000E-01
                       5.00000000E-01  2.50000000E-01  3.75000000E-01
                      -2.50000000E-01  2.50000000E-01  3.75000000E-01
                       5.00000000E-01  5.00000000E-01  3.75000000E-01
         kptrlatt        4    0    0      0    4    0      0    0    4
          kptrlen      2.12000000E+01
P           mkmem          14
            natom           4
            nband           8
           ndtset           1
            ngfft          45      45     240
             nkpt          14
            nstep         100
             nsym           8
            ntime        1000
           ntypat           2
              occ      2.000000  2.000000  2.000000  2.000000  2.000000  2.000000
                       2.000000  2.000000
                       2.000000  2.000000  2.000000  2.000000  2.000000  2.000000
                       2.000000  2.000000
                       2.000000  2.000000  2.000000  2.000000  2.000000  2.000000
                       2.000000  2.000000
                       2.000000  2.000000  2.000000  2.000000  2.000000  2.000000
                       2.000000  2.000000
                       2.000000  2.000000  2.000000  2.000000  2.000000  2.000000
                       2.000000  2.000000
                       2.000000  2.000000  2.000000  2.000000  2.000000  2.000000
                       2.000000  2.000000
                       2.000000  2.000000  2.000000  2.000000  2.000000  2.000000
                       2.000000  2.000000
                       2.000000  2.000000  2.000000  2.000000  2.000000  2.000000
                       2.000000  2.000000
                       2.000000  2.000000  2.000000  2.000000  2.000000  2.000000
                       2.000000  2.000000
                       2.000000  2.000000  2.000000  2.000000  2.000000  2.000000
                       2.000000  2.000000
                       2.000000  2.000000  2.000000  2.000000  2.000000  2.000000
                       2.000000  2.000000
                       2.000000  2.000000  2.000000  2.000000  2.000000  2.000000
                       2.000000  2.000000
                       2.000000  2.000000  2.000000  2.000000  2.000000  2.000000
                       2.000000  2.000000
                       2.000000  2.000000  2.000000  2.000000  2.000000  2.000000
                       2.000000  2.000000
           occopt           3
            rprim      2.6500000000E+00  4.6000000000E+00  0.0000000000E+00
                      -2.6500000000E+00  4.6000000000E+00  0.0000000000E+00
                       0.0000000000E+00  0.0000000000E+00  3.0000000000E+01
           shiftk      0.00000000E+00  0.00000000E+00  5.00000000E-01
          spgroup          63
           symrel      1  0  0   0  1  0   0  0  1      -1  0  0   0 -1  0   0  0 -1
                       0 -1  0  -1  0  0   0  0 -1       0  1  0   1  0  0   0  0  1
                      -1  0  0   0 -1  0   0  0  1       1  0  0   0  1  0   0  0 -1
                       0  1  0   1  0  0   0  0 -1       0 -1  0  -1  0  0   0  0  1
            tnons      0.0000000  0.0000000  0.0000000    -0.0000000 -0.0000000  0.0000000
                      -0.0000000 -0.0000000  0.5000000     0.0000000  0.0000000  0.5000000
                      -0.0000000 -0.0000000  0.5000000     0.0000000  0.0000000  0.5000000
                       0.0000000  0.0000000  0.0000000    -0.0000000 -0.0000000  0.0000000
           toldfe      1.00000000E-08 Hartree
            typat      1  2  1  2
              wtk        0.03125    0.12500    0.06250    0.06250    0.12500    0.06250
                         0.03125    0.03125    0.12500    0.06250    0.06250    0.12500
                         0.06250    0.03125
           xangst     -4.7678866494E-01  2.4342151595E+00  3.9688290644E+00
                       4.7678866494E-01  2.4342151595E+00  3.9688290644E+00
                       4.7678866494E-01  2.4342151595E+00  1.1906487193E+01
                      -4.7678866494E-01  2.4342151595E+00  1.1906487193E+01
            xcart     -9.0100000000E-01  4.6000000000E+00  7.5000000000E+00
                       9.0100000000E-01  4.6000000000E+00  7.5000000000E+00
                       9.0100000000E-01  4.6000000000E+00  2.2500000000E+01
                      -9.0100000000E-01  4.6000000000E+00  2.2500000000E+01
             xred      3.3000000000E-01  6.7000000000E-01  2.5000000000E-01
                       6.7000000000E-01  3.3000000000E-01  2.5000000000E-01
                       6.7000000000E-01  3.3000000000E-01  7.5000000000E-01
                       3.3000000000E-01  6.7000000000E-01  7.5000000000E-01
            znucl       14.00000    6.00000

================================================================================

 chkinp: Checking input parameters for consistency, jdtset=   1.

================================================================================
== DATASET  1 ==================================================================
-   mpi_nproc: 1, omp_nthreads: -1 (-1 if OMP is not activated)


--- !DatasetInfo
iteration_state: {dtset: 1, }
dimensions: {natom: 4, nkpt: 14, mband: 8, nsppol: 1, nspinor: 1, nspden: 1, mpw: 22759, }
cutoff_energies: {ecut:  75.0, pawecutdg:  -1.0, }
electrons: {nelect:   1.60000000E+01, charge:   0.00000000E+00, occopt:   3.00000000E+00, tsmear:   1.00000000E-02, }
meta: {optdriver: 0, ionmov: 2, optcell: 0, iscf: 7, paral_kgb: 0, }
...

 Exchange-correlation functional for the present dataset will be:
  GGA: Perdew-Burke-Ernzerhof functional - ixc=11
 Citation for XC functional:
  J.P.Perdew, K.Burke, M.Ernzerhof, PRL 77, 3865 (1996)

 Real(R)+Recip(G) space primitive vectors, cartesian coordinates (Bohr,Bohr^-1):
 R(1)=  2.6500000  4.6000000  0.0000000  G(1)=  0.1886792  0.1086957  0.0000000
 R(2)= -2.6500000  4.6000000  0.0000000  G(2)= -0.1886792  0.1086957  0.0000000
 R(3)=  0.0000000  0.0000000 30.0000000  G(3)=  0.0000000  0.0000000  0.0333333
 Unit cell volume ucvol=  7.3140000E+02 bohr^3
 Angles (23,13,12)=  9.00000000E+01  9.00000000E+01  5.98913669E+01 degrees

 getcut: wavevector=  0.0000  0.0000  0.0000  ngfft=  45  45 240
         ecut(hartree)=     75.000   => boxcut(ratio)=   2.05208

--- Pseudopotential description ------------------------------------------------
- pspini: atom type   1  psp file is /home/hrishi/abinit-10.0.5/Pseudopotentials/Si.psp8
- pspatm: opening atomic psp file    /home/hrishi/abinit-10.0.5/Pseudopotentials/Si.psp8
- Si    ONCVPSP-3.2.3.1  r_core=   1.60303   1.72197   1.91712
- 14.00000   4.00000    170510                znucl, zion, pspdat
    8   11    2    4       600   0.00000      pspcod,pspxc,lmax,lloc,mmax,r2well
    5.99000000000000    4.00000000000000    0.00000000000000   rchrg,fchrg,qchrg
     nproj     2     2     2
     extension_switch     1
  pspatm : epsatm=    9.34321699
         --- l  ekb(1:nproj) -->
             0    5.168965    0.829883
             1    2.571282    0.578307
             2   -2.427311   -0.488097
 pspatm: atomic psp has been read  and splines computed

- pspini: atom type   2  psp file is /home/hrishi/abinit-10.0.5/Pseudopotentials/C.psp8
- pspatm: opening atomic psp file    /home/hrishi/abinit-10.0.5/Pseudopotentials/C.psp8
- C     ONCVPSP-3.2.3.1  r_core=   1.20440   1.26326
-  6.00000   4.00000    170503                znucl, zion, pspdat
    8   11    1    4       600   0.00000      pspcod,pspxc,lmax,lloc,mmax,r2well
    5.99000000000000    4.00000000000000    0.00000000000000   rchrg,fchrg,qchrg
     nproj     2     2
     extension_switch     1
  pspatm : epsatm=    4.31347020
         --- l  ekb(1:nproj) -->
             0    6.481548    0.385504
             1   -4.199961   -0.877517
 pspatm: atomic psp has been read  and splines computed

   4.37013990E+02                                ecore*ucvol(ha*bohr**3)
--------------------------------------------------------------------------------

_setup2: Arith. and geom. avg. npw (full set) are   22696.500   22696.487

================================================================================

=== [ionmov= 2] Broyden-Fletcher-Goldfard-Shanno method (forces)            
================================================================================

--- Iteration: (   1/1000) Internal Cycle: (1/1)
--------------------------------------------------------------------------------

---SELF-CONSISTENT-FIELD CONVERGENCE--------------------------------------------

--- !BeginCycle
iteration_state: {dtset: 1, itime: 1, icycle: 1, }
solver: {iscf: 7, nstep: 100, nline: 4, wfoptalg: 0, }
tolerances: {toldfe: 1.00E-08, }
...

     iter   Etot(hartree)      deltaE(h)  residm     vres2
 ETOT  1  -16.723685865161    -1.672E+01 2.660E-01 2.469E+04
 ETOT  2  -17.787230189614    -1.064E+00 7.640E-04 2.348E+03
 ETOT  3  -17.807626490515    -2.040E-02 3.594E-04 1.954E+03
 ETOT  4  -17.814304322640    -6.678E-03 3.907E-05 2.670E+02
 ETOT  5  -17.815467766570    -1.163E-03 9.862E-06 1.912E+02
 ETOT  6  -17.815530683535    -6.292E-05 9.150E-06 5.154E+01
 ETOT  7  -17.815612513514    -8.183E-05 1.309E-06 1.037E+01
 ETOT  8  -17.815634245049    -2.173E-05 2.727E-07 8.599E-01
 ETOT  9  -17.815635611554    -1.367E-06 1.038E-07 1.268E-01
 ETOT 10  -17.815635955440    -3.439E-07 1.989E-08 2.583E-03
 ETOT 11  -17.815635967926    -1.249E-08 1.696E-09 3.472E-04
 ETOT 12  -17.815635968329    -4.030E-10 2.384E-10 1.454E-05
 ETOT 13  -17.815635968400    -7.050E-11 3.545E-11 4.465E-06

 At SCF step   13, etot is converged : 
  for the second time, diff in etot=  7.050E-11 < toldfe=  1.000E-08

 Cartesian components of stress tensor (hartree/bohr^3)
  sigma(1 1)= -1.47806385E-02  sigma(3 2)=  0.00000000E+00
  sigma(2 2)= -3.66403447E-04  sigma(3 1)=  0.00000000E+00
  sigma(3 3)=  1.61453561E-07  sigma(2 1)=  0.00000000E+00


--- !ResultsGS
iteration_state: {dtset: 1, itime: 1, icycle: 1, }
comment   : Summary of ground state results
lattice_vectors:
- [  2.6500000,   4.6000000,   0.0000000, ]
- [ -2.6500000,   4.6000000,   0.0000000, ]
- [  0.0000000,   0.0000000,  30.0000000, ]
lattice_lengths: [   5.30872,    5.30872,   30.00000, ]
lattice_angles: [ 90.000,  90.000,  59.891, ] # degrees, (23, 13, 12)
lattice_volume:   7.3140000E+02
convergence: {deltae: -7.050E-11, res2:  4.465E-06, residm:  3.545E-11, diffor: null, }
etotal    :  -1.78156360E+01
entropy   :   0.00000000E+00
fermie    :   2.93417823E-01
cartesian_stress_tensor: # hartree/bohr^3
- [ -1.47806385E-02,   0.00000000E+00,   0.00000000E+00, ]
- [  0.00000000E+00,  -3.66403447E-04,   0.00000000E+00, ]
- [  0.00000000E+00,   0.00000000E+00,   1.61453561E-07, ]
pressure_GPa:   1.4855E+02
xred      :
- [  3.3000E-01,   6.7000E-01,   2.5000E-01, Si]
- [  6.7000E-01,   3.3000E-01,   2.5000E-01,  C]
- [  6.7000E-01,   3.3000E-01,   7.5000E-01, Si]
- [  3.3000E-01,   6.7000E-01,   7.5000E-01,  C]
cartesian_forces: # hartree/bohr
- [ -2.99542881E+00,  -4.84579576E-17,  -0.00000000E+00, ]
- [  2.99542926E+00,   5.32850107E-17,  -0.00000000E+00, ]
- [  2.99542881E+00,   4.84579576E-17,  -0.00000000E+00, ]
- [ -2.99542926E+00,  -5.32850107E-17,  -0.00000000E+00, ]
force_length_stats: {min:   2.99542881E+00, max:   2.99542926E+00, mean:   2.99542904E+00, }
...

 Integrated electronic density in atomic spheres:
 ------------------------------------------------
 Atom  Sphere_radius  Integrated_density
    1        2.00000          3.63497965
    2        2.00000          5.09584906
    3        2.00000          3.63497965
    4        2.00000          5.09584906

---OUTPUT-----------------------------------------------------------------------

 Cartesian coordinates (xcart) [bohr]
 -9.01000000000000E-01  4.60000000000000E+00  7.50000000000000E+00
  9.01000000000000E-01  4.60000000000000E+00  7.50000000000000E+00
  9.01000000000000E-01  4.60000000000000E+00  2.25000000000000E+01
 -9.01000000000000E-01  4.60000000000000E+00  2.25000000000000E+01
 Reduced coordinates (xred)
  3.30000000000000E-01  6.70000000000000E-01  2.50000000000000E-01
  6.70000000000000E-01  3.30000000000000E-01  2.50000000000000E-01
  6.70000000000000E-01  3.30000000000000E-01  7.50000000000000E-01
  3.30000000000000E-01  6.70000000000000E-01  7.50000000000000E-01
 Cartesian forces (fcart) [Ha/bohr]; max,rms= 2.99543E+00 1.72941E+00 (free atoms)
 -2.99542881224495E+00 -4.84579575968938E-17 -0.00000000000000E+00
  2.99542925828856E+00  5.32850106596638E-17 -0.00000000000000E+00
  2.99542881224495E+00  4.84579575968938E-17 -0.00000000000000E+00
 -2.99542925828856E+00 -5.32850106596638E-17 -0.00000000000000E+00
 Gradient of E wrt nuclear positions in reduced coordinates (gred)
  7.93788635244913E+00 -7.93788635244913E+00  0.00000000000000E+00
 -7.93788753446469E+00  7.93788753446469E+00 -0.00000000000000E+00
 -7.93788635244913E+00  7.93788635244913E+00 -0.00000000000000E+00
  7.93788753446469E+00 -7.93788753446469E+00  0.00000000000000E+00
 Total energy (etotal) [Ha]= -1.78156359683995E+01

--- Iteration: (   2/1000) Internal Cycle: (1/1)
--------------------------------------------------------------------------------

---SELF-CONSISTENT-FIELD CONVERGENCE--------------------------------------------

--- !BeginCycle
iteration_state: {dtset: 1, itime: 2, icycle: 1, }
solver: {iscf: 7, nstep: 100, nline: 4, wfoptalg: 0, }
tolerances: {toldfe: 1.00E-08, }
...

     iter   Etot(hartree)      deltaE(h)  residm     vres2
 ETOT  1  -19.552142894339    -1.955E+01 2.012E-02 5.671E+03
 ETOT  2  -19.861648613891    -3.095E-01 1.182E-04 2.545E+02
 ETOT  3  -19.864476582801    -2.828E-03 7.631E-05 6.631E+01
 ETOT  4  -19.864915934194    -4.394E-04 1.882E-06 1.771E+01
 ETOT  5  -19.864949020823    -3.309E-05 2.426E-07 1.072E+01
 ETOT  6  -19.864971915516    -2.289E-05 4.532E-08 2.939E+00
 ETOT  7  -19.864976869283    -4.954E-06 2.961E-08 3.538E-01
 ETOT  8  -19.864977002809    -1.335E-07 1.290E-09 9.463E-03
 ETOT  9  -19.864977023092    -2.028E-08 9.363E-11 2.646E-03
 ETOT 10  -19.864977026990    -3.898E-09 2.482E-11 4.730E-05
 ETOT 11  -19.864977027203    -2.134E-10 5.134E-13 2.405E-06

 At SCF step   11, etot is converged : 
  for the second time, diff in etot=  2.134E-10 < toldfe=  1.000E-08

 Cartesian components of stress tensor (hartree/bohr^3)
  sigma(1 1)= -6.03892134E-03  sigma(3 2)=  0.00000000E+00
  sigma(2 2)= -3.28427552E-04  sigma(3 1)=  0.00000000E+00
  sigma(3 3)=  1.44786610E-07  sigma(2 1)=  0.00000000E+00


--- !ResultsGS
iteration_state: {dtset: 1, itime: 2, icycle: 1, }
comment   : Summary of ground state results
lattice_vectors:
- [  2.6500000,   4.6000000,   0.0000000, ]
- [ -2.6500000,   4.6000000,   0.0000000, ]
- [  0.0000000,   0.0000000,  30.0000000, ]
lattice_lengths: [   5.30872,    5.30872,   30.00000, ]
lattice_angles: [ 90.000,  90.000,  59.891, ] # degrees, (23, 13, 12)
lattice_volume:   7.3140000E+02
convergence: {deltae: -2.134E-10, res2:  2.405E-06, residm:  5.134E-13, diffor: null, }
etotal    :  -1.98649770E+01
entropy   :   0.00000000E+00
fermie    :   3.42453047E-01
cartesian_stress_tensor: # hartree/bohr^3
- [ -6.03892134E-03,   0.00000000E+00,   0.00000000E+00, ]
- [  0.00000000E+00,  -3.28427552E-04,   0.00000000E+00, ]
- [  0.00000000E+00,   0.00000000E+00,   1.44786610E-07, ]
pressure_GPa:   6.2443E+01
xred      :
- [ -2.3518E-01,   1.2352E+00,   2.5000E-01, Si]
- [  1.2352E+00,  -2.3518E-01,   2.5000E-01,  C]
- [  1.2352E+00,  -2.3518E-01,   7.5000E-01, Si]
- [ -2.3518E-01,   1.2352E+00,   7.5000E-01,  C]
cartesian_forces: # hartree/bohr
- [ -3.66723037E-01,  -4.91208509E-18,   9.86076132E-33, ]
- [  3.66722970E-01,   3.70532147E-18,  -9.53206927E-32, ]
- [  3.66723037E-01,   4.91208509E-18,  -2.95822839E-32, ]
- [ -3.66722970E-01,  -3.70532147E-18,   1.15042215E-31, ]
force_length_stats: {min:   3.66722970E-01, max:   3.66723037E-01, mean:   3.66723003E-01, }
...

 Integrated electronic density in atomic spheres:
 ------------------------------------------------
 Atom  Sphere_radius  Integrated_density
    1        2.00000          2.84705531
    2        2.00000          4.93114251
    3        2.00000          2.84705531
    4        2.00000          4.93114251

---OUTPUT-----------------------------------------------------------------------

 Cartesian coordinates (xcart) [bohr]
 -3.89642881224496E+00  4.60000000000000E+00  7.50000000000000E+00
  3.89642925828856E+00  4.60000000000000E+00  7.50000000000000E+00
  3.89642881224496E+00  4.60000000000000E+00  2.25000000000000E+01
 -3.89642925828856E+00  4.60000000000000E+00  2.25000000000000E+01
 Reduced coordinates (xred)
 -2.35175247593388E-01  1.23517524759339E+00  2.50000000000000E-01
  1.23517533175256E+00 -2.35175331752559E-01  2.50000000000000E-01
  1.23517524759339E+00 -2.35175247593388E-01  7.50000000000000E-01
 -2.35175331752559E-01  1.23517533175256E+00  7.50000000000000E-01
 Cartesian forces (fcart) [Ha/bohr]; max,rms= 3.66723E-01 2.11728E-01 (free atoms)
 -3.66723036849102E-01 -4.91208508756529E-18  9.86076131526265E-33
  3.66722969949242E-01  3.70532146521587E-18 -9.53206927142056E-32
  3.66723036849102E-01  4.91208508756529E-18 -2.95822839457879E-32
 -3.66722969949242E-01 -3.70532146521587E-18  1.15042215344731E-31
 Gradient of E wrt nuclear positions in reduced coordinates (gred)
  9.71816047650120E-01 -9.71816047650120E-01 -2.95822839457880E-31
 -9.71815870365490E-01  9.71815870365490E-01  2.85962078142617E-30
 -9.71816047650120E-01  9.71816047650120E-01  8.87468518373638E-31
  9.71815870365490E-01 -9.71815870365490E-01 -3.45126646034193E-30
 Total energy (etotal) [Ha]= -1.98649770272032E+01

 Difference of energy with previous step (new-old):
           Absolute (Ha)=-2.04934E+00
           Relative     =-1.08774E-01

--- Iteration: (   3/1000) Internal Cycle: (1/1)
--------------------------------------------------------------------------------

---SELF-CONSISTENT-FIELD CONVERGENCE--------------------------------------------

--- !BeginCycle
iteration_state: {dtset: 1, itime: 3, icycle: 1, }
solver: {iscf: 7, nstep: 100, nline: 4, wfoptalg: 0, }
tolerances: {toldfe: 1.00E-08, }
...

     iter   Etot(hartree)      deltaE(h)  residm     vres2
 ETOT  1  -17.877562857182    -1.788E+01 9.107E-04 1.241E+04
 ETOT  2  -18.643488742673    -7.659E-01 3.795E-04 6.505E+02
 ETOT  3  -18.672735747184    -2.925E-02 2.842E-04 7.342E+01
 ETOT  4  -18.675787240550    -3.051E-03 6.424E-05 3.590E+00
 ETOT  5  -18.675820438041    -3.320E-05 1.184E-06 2.167E+00
 ETOT  6  -18.675822864368    -2.426E-06 2.885E-08 1.109E+00
 ETOT  7  -18.675823207402    -3.430E-07 3.768E-09 6.264E-01
 ETOT  8  -18.675823800527    -5.931E-07 1.621E-09 1.957E-02
 ETOT  9  -18.675823859252    -5.872E-08 6.183E-10 7.372E-04
 ETOT 10  -18.675823866118    -6.866E-09 3.720E-11 3.233E-05
 ETOT 11  -18.675823866393    -2.752E-10 6.378E-12 2.442E-06

 At SCF step   11, etot is converged : 
  for the second time, diff in etot=  2.752E-10 < toldfe=  1.000E-08

 Cartesian components of stress tensor (hartree/bohr^3)
  sigma(1 1)= -1.16890521E-02  sigma(3 2)=  0.00000000E+00
  sigma(2 2)= -3.49399413E-04  sigma(3 1)=  0.00000000E+00
  sigma(3 3)=  1.09491425E-07  sigma(2 1)=  0.00000000E+00


--- !ResultsGS
iteration_state: {dtset: 1, itime: 3, icycle: 1, }
comment   : Summary of ground state results
lattice_vectors:
- [  2.6500000,   4.6000000,   0.0000000, ]
- [ -2.6500000,   4.6000000,   0.0000000, ]
- [  0.0000000,   0.0000000,  30.0000000, ]
lattice_lengths: [   5.30872,    5.30872,   30.00000, ]
lattice_angles: [ 90.000,  90.000,  59.891, ] # degrees, (23, 13, 12)
lattice_volume:   7.3140000E+02
convergence: {deltae: -2.752E-10, res2:  2.442E-06, residm:  6.378E-12, diffor: null, }
etotal    :  -1.86758239E+01
entropy   :   0.00000000E+00
fermie    :   2.81799813E-01
cartesian_stress_tensor: # hartree/bohr^3
- [ -1.16890521E-02,   0.00000000E+00,   0.00000000E+00, ]
- [  0.00000000E+00,  -3.49399413E-04,   0.00000000E+00, ]
- [  0.00000000E+00,   0.00000000E+00,   1.09491425E-07, ]
pressure_GPa:   1.1806E+02
xred      :
- [ -3.1402E-01,   1.3140E+00,   2.5000E-01, Si]
- [  1.3140E+00,  -3.1402E-01,   2.5000E-01,  C]
- [  1.3140E+00,  -3.1402E-01,   7.5000E-01, Si]
- [ -3.1402E-01,   1.3140E+00,   7.5000E-01,  C]
cartesian_forces: # hartree/bohr
- [  2.11247913E+00,  -7.11932617E-17,  -0.00000000E+00, ]
- [ -2.11247917E+00,   6.39526771E-17,  -0.00000000E+00, ]
- [ -2.11247913E+00,   3.01632804E-17,  -0.00000000E+00, ]
- [  2.11247917E+00,  -2.29226958E-17,  -0.00000000E+00, ]
force_length_stats: {min:   2.11247913E+00, max:   2.11247917E+00, mean:   2.11247915E+00, }
...

 Integrated electronic density in atomic spheres:
 ------------------------------------------------
 Atom  Sphere_radius  Integrated_density
    1        2.00000          3.37572607
    2        2.00000          5.04592032
    3        2.00000          3.37572607
    4        2.00000          5.04592032

---OUTPUT-----------------------------------------------------------------------

 Cartesian coordinates (xcart) [bohr]
 -4.31431229528264E+00  4.60000000000000E+00  7.50000000000000E+00
  4.31431266509339E+00  4.60000000000000E+00  7.50000000000000E+00
  4.31431229528264E+00  4.60000000000000E+00  2.25000000000000E+01
 -4.31431266509339E+00  4.60000000000000E+00  2.25000000000000E+01
 Reduced coordinates (xred)
 -3.14021187789178E-01  1.31402118778918E+00  2.50000000000000E-01
  1.31402125756479E+00 -3.14021257564790E-01  2.50000000000000E-01
  1.31402118778918E+00 -3.14021187789178E-01  7.50000000000000E-01
 -3.14021257564790E-01  1.31402125756479E+00  7.50000000000000E-01
 Cartesian forces (fcart) [Ha/bohr]; max,rms= 2.11248E+00 1.21964E+00 (free atoms)
  2.11247912932011E+00 -7.11932617107139E-17 -0.00000000000000E+00
 -2.11247917405874E+00  6.39526771251834E-17 -0.00000000000000E+00
 -2.11247912932011E+00  3.01632803658712E-17 -0.00000000000000E+00
  2.11247917405874E+00 -2.29226957803406E-17 -0.00000000000000E+00
 Gradient of E wrt nuclear positions in reduced coordinates (gred)
 -5.59806969269829E+00  5.59806969269829E+00 -0.00000000000000E+00
  5.59806981125566E+00 -5.59806981125566E+00 -0.00000000000000E+00
  5.59806969269829E+00 -5.59806969269829E+00 -0.00000000000000E+00
 -5.59806981125566E+00  5.59806981125566E+00 -0.00000000000000E+00
 Total energy (etotal) [Ha]= -1.86758238663930E+01

 Difference of energy with previous step (new-old):
           Absolute (Ha)= 1.18915E+00
           Relative     = 6.17088E-02

--- Iteration: (   4/1000) Internal Cycle: (1/1)
--------------------------------------------------------------------------------

---SELF-CONSISTENT-FIELD CONVERGENCE--------------------------------------------

--- !BeginCycle
iteration_state: {dtset: 1, itime: 4, icycle: 1, }
solver: {iscf: 7, nstep: 100, nline: 4, wfoptalg: 0, }
tolerances: {toldfe: 1.00E-08, }
...

     iter   Etot(hartree)      deltaE(h)  residm     vres2
 ETOT  1  -19.520442538794    -1.952E+01 5.590E-04 6.835E+03
 ETOT  2  -19.915632614864    -3.952E-01 1.365E-04 2.409E+02
 ETOT  3  -19.919201594425    -3.569E-03 1.735E-04 3.670E+01
 ETOT  4  -19.919432624768    -2.310E-04 1.811E-06 9.634E+00
 ETOT  5  -19.919447737860    -1.511E-05 1.062E-07 6.137E+00
 ETOT  6  -19.919463785945    -1.605E-05 4.339E-08 1.347E+00
 ETOT  7  -19.919465980434    -2.194E-06 1.464E-08 1.447E-01
 ETOT  8  -19.919466040748    -6.031E-08 9.203E-10 7.594E-03
 ETOT  9  -19.919466052262    -1.151E-08 5.944E-11 1.049E-03
 ETOT 10  -19.919466053295    -1.033E-09 7.167E-12 3.116E-05
 ETOT 11  -19.919466053466    -1.708E-10 1.029E-12 3.086E-07

 At SCF step   11, etot is converged : 
  for the second time, diff in etot=  1.708E-10 < toldfe=  1.000E-08

 Cartesian components of stress tensor (hartree/bohr^3)
  sigma(1 1)= -5.72605566E-03  sigma(3 2)=  0.00000000E+00
  sigma(2 2)= -3.27913489E-04  sigma(3 1)=  0.00000000E+00
  sigma(3 3)=  1.72001354E-07  sigma(2 1)=  0.00000000E+00


--- !ResultsGS
iteration_state: {dtset: 1, itime: 4, icycle: 1, }
comment   : Summary of ground state results
lattice_vectors:
- [  2.6500000,   4.6000000,   0.0000000, ]
- [ -2.6500000,   4.6000000,   0.0000000, ]
- [  0.0000000,   0.0000000,  30.0000000, ]
lattice_lengths: [   5.30872,    5.30872,   30.00000, ]
lattice_angles: [ 90.000,  90.000,  59.891, ] # degrees, (23, 13, 12)
lattice_volume:   7.3140000E+02
convergence: {deltae: -1.708E-10, res2:  3.086E-07, residm:  1.029E-12, diffor: null, }
etotal    :  -1.99194661E+01
entropy   :   0.00000000E+00
fermie    :   3.45917784E-01
cartesian_stress_tensor: # hartree/bohr^3
- [ -5.72605566E-03,   0.00000000E+00,   0.00000000E+00, ]
- [  0.00000000E+00,  -3.27913489E-04,   0.00000000E+00, ]
- [  0.00000000E+00,   0.00000000E+00,   1.72001354E-07, ]
pressure_GPa:   5.9370E+01
xred      :
- [ -2.4684E-01,   1.2468E+00,   2.5000E-01, Si]
- [  1.2468E+00,  -2.4684E-01,   2.5000E-01,  C]
- [  1.2468E+00,  -2.4684E-01,   7.5000E-01, Si]
- [ -2.4684E-01,   1.2468E+00,   7.5000E-01,  C]
cartesian_forces: # hartree/bohr
- [ -7.67420822E-02,  -1.34745319E-18,  -2.62953635E-32, ]
- [  7.67421558E-02,   1.49829813E-18,  -2.62953635E-32, ]
- [  7.67420822E-02,   1.34745319E-18,  -2.62953635E-32, ]
- [ -7.67421558E-02,  -1.49829813E-18,   7.88860905E-32, ]
force_length_stats: {min:   7.67420822E-02, max:   7.67421558E-02, mean:   7.67421190E-02, }
...

 Integrated electronic density in atomic spheres:
 ------------------------------------------------
 Atom  Sphere_radius  Integrated_density
    1        2.00000          2.81692431
    2        2.00000          4.93070214
    3        2.00000          2.81692431
    4        2.00000          4.93070214

---OUTPUT-----------------------------------------------------------------------

 Cartesian coordinates (xcart) [bohr]
 -3.95824207120876E+00  4.60000000000000E+00  7.50000000000000E+00
  3.95824244235425E+00  4.60000000000000E+00  7.50000000000000E+00
  3.95824207120876E+00  4.60000000000000E+00  2.25000000000000E+01
 -3.95824244235424E+00  4.60000000000000E+00  2.25000000000000E+01
 Reduced coordinates (xred)
 -2.46838126643162E-01  1.24683812664316E+00  2.50000000000000E-01
  1.24683819667061E+00 -2.46838196670612E-01  2.50000000000000E-01
  1.24683812664316E+00 -2.46838126643162E-01  7.50000000000000E-01
 -2.46838196670612E-01  1.24683819667061E+00  7.50000000000000E-01
 Cartesian forces (fcart) [Ha/bohr]; max,rms= 7.67422E-02 4.43071E-02 (free atoms)
 -7.67420822391905E-02 -1.34745319390854E-18 -2.62953635073671E-32
  7.67421558289778E-02  1.49829812522214E-18 -2.62953635073671E-32
  7.67420822391905E-02  1.34745319390854E-18 -2.62953635073671E-32
 -7.67421558289778E-02 -1.49829812522214E-18  7.88860905221012E-32
 Gradient of E wrt nuclear positions in reduced coordinates (gred)
  2.03366517933855E-01 -2.03366517933855E-01  7.88860905221012E-31
 -2.03366712946791E-01  2.03366712946791E-01  7.88860905221012E-31
 -2.03366517933855E-01  2.03366517933855E-01  7.88860905221012E-31
  2.03366712946791E-01 -2.03366712946791E-01 -2.36658271566304E-30
 Total energy (etotal) [Ha]= -1.99194660534659E+01

 Difference of energy with previous step (new-old):
           Absolute (Ha)=-1.24364E+00
           Relative     =-6.44453E-02

--- Iteration: (   5/1000) Internal Cycle: (1/1)
--------------------------------------------------------------------------------

---SELF-CONSISTENT-FIELD CONVERGENCE--------------------------------------------

--- !BeginCycle
iteration_state: {dtset: 1, itime: 5, icycle: 1, }
solver: {iscf: 7, nstep: 100, nline: 4, wfoptalg: 0, }
tolerances: {toldfe: 1.00E-08, }
...

     iter   Etot(hartree)      deltaE(h)  residm     vres2
 ETOT  1  -19.921114980811    -1.992E+01 5.380E-07 2.783E+02
 ETOT  2  -19.921865372573    -7.504E-04 1.510E-07 2.421E+01
 ETOT  3  -19.921869331313    -3.959E-06 3.270E-07 5.843E-02
 ETOT  4  -19.921869654831    -3.235E-07 2.707E-08 3.920E-03
 ETOT  5  -19.921869666080    -1.125E-08 3.025E-10 4.280E-04
 ETOT  6  -19.921869668513    -2.433E-09 1.746E-11 1.838E-04
 ETOT  7  -19.921869668542    -2.924E-11 3.344E-13 8.184E-05

 At SCF step    7, etot is converged : 
  for the second time, diff in etot=  2.924E-11 < toldfe=  1.000E-08

 Cartesian components of stress tensor (hartree/bohr^3)
  sigma(1 1)= -5.71208674E-03  sigma(3 2)=  0.00000000E+00
  sigma(2 2)= -3.27890789E-04  sigma(3 1)=  0.00000000E+00
  sigma(3 3)=  1.17965567E-07  sigma(2 1)=  0.00000000E+00


--- !ResultsGS
iteration_state: {dtset: 1, itime: 5, icycle: 1, }
comment   : Summary of ground state results
lattice_vectors:
- [  2.6500000,   4.6000000,   0.0000000, ]
- [ -2.6500000,   4.6000000,   0.0000000, ]
- [  0.0000000,   0.0000000,  30.0000000, ]
lattice_lengths: [   5.30872,    5.30872,   30.00000, ]
lattice_angles: [ 90.000,  90.000,  59.891, ] # degrees, (23, 13, 12)
lattice_volume:   7.3140000E+02
convergence: {deltae: -2.924E-11, res2:  8.184E-05, residm:  3.344E-13, diffor: null, }
etotal    :  -1.99218697E+01
entropy   :   0.00000000E+00
fermie    :   3.46060845E-01
cartesian_stress_tensor: # hartree/bohr^3
- [ -5.71208674E-03,   0.00000000E+00,   0.00000000E+00, ]
- [  0.00000000E+00,  -3.27890789E-04,   0.00000000E+00, ]
- [  0.00000000E+00,   0.00000000E+00,   1.17965567E-07, ]
pressure_GPa:   5.9233E+01
xred      :
- [ -2.4919E-01,   1.2492E+00,   2.5000E-01, Si]
- [  1.2492E+00,  -2.4919E-01,   2.5000E-01,  C]
- [  1.2492E+00,  -2.4919E-01,   7.5000E-01, Si]
- [ -2.4919E-01,   1.2492E+00,   7.5000E-01,  C]
cartesian_forces: # hartree/bohr
- [ -1.95645899E-02,  -3.71544090E-19,  -0.00000000E+00, ]
- [  1.95646672E-02,   1.45275193E-19,  -0.00000000E+00, ]
- [  1.95645899E-02,  -5.56970887E-21,  -0.00000000E+00, ]
- [ -1.95646672E-02,   2.31838607E-19,  -0.00000000E+00, ]
force_length_stats: {min:   1.95645899E-02, max:   1.95646672E-02, mean:   1.95646285E-02, }
...

 Integrated electronic density in atomic spheres:
 ------------------------------------------------
 Atom  Sphere_radius  Integrated_density
    1        2.00000          2.81020364
    2        2.00000          4.92724701
    3        2.00000          2.81020364
    4        2.00000          4.92724701

---OUTPUT-----------------------------------------------------------------------

 Cartesian coordinates (xcart) [bohr]
 -3.97072391024167E+00  4.60000000000000E+00  7.50000000000000E+00
  3.97072435078221E+00  4.60000000000000E+00  7.50000000000000E+00
  3.97072391024167E+00  4.60000000000000E+00  2.25000000000000E+01
 -3.97072435078220E+00  4.60000000000000E+00  2.25000000000000E+01
 Reduced coordinates (xred)
 -2.49193190611636E-01  1.24919319061164E+00  2.50000000000000E-01
  1.24919327373249E+00 -2.49193273732492E-01  2.50000000000000E-01
  1.24919319061164E+00 -2.49193190611636E-01  7.50000000000000E-01
 -2.49193273732492E-01  1.24919327373249E+00  7.50000000000000E-01
 Cartesian forces (fcart) [Ha/bohr]; max,rms= 1.95647E-02 1.12956E-02 (free atoms)
 -1.95645898775397E-02 -3.71544090254107E-19 -0.00000000000000E+00
  1.95646672032977E-02  1.45275192573932E-19 -0.00000000000000E+00
  1.95645898775397E-02 -5.56970887128567E-21 -0.00000000000000E+00
 -1.95646672032977E-02  2.31838606551461E-19 -0.00000000000000E+00
 Gradient of E wrt nuclear positions in reduced coordinates (gred)
  5.18461631754801E-02 -5.18461631754801E-02  0.00000000000000E+00
 -5.18463680887388E-02  5.18463680887388E-02 -0.00000000000000E+00
 -5.18461631754801E-02  5.18461631754801E-02 -0.00000000000000E+00
  5.18463680887388E-02 -5.18463680887388E-02 -0.00000000000000E+00
 Total energy (etotal) [Ha]= -1.99218696685419E+01

 Difference of energy with previous step (new-old):
           Absolute (Ha)=-2.40362E-03
           Relative     =-1.20659E-04

--- Iteration: (   6/1000) Internal Cycle: (1/1)
--------------------------------------------------------------------------------

---SELF-CONSISTENT-FIELD CONVERGENCE--------------------------------------------

--- !BeginCycle
iteration_state: {dtset: 1, itime: 6, icycle: 1, }
solver: {iscf: 7, nstep: 100, nline: 4, wfoptalg: 0, }
tolerances: {toldfe: 1.00E-08, }
...

     iter   Etot(hartree)      deltaE(h)  residm     vres2
 ETOT  1  -19.921948111884    -1.992E+01 6.316E-08 1.649E+02
 ETOT  2  -19.922036467115    -8.836E-05 1.772E-08 1.466E+01
 ETOT  3  -19.922036935078    -4.680E-07 3.846E-08 4.471E-02
 ETOT  4  -19.922036974747    -3.967E-08 4.116E-09 1.660E-03
 ETOT  5  -19.922036980144    -5.398E-09 1.719E-10 8.228E-05
 ETOT  6  -19.922036980761    -6.162E-10 5.200E-12 2.554E-05

 At SCF step    6, etot is converged : 
  for the second time, diff in etot=  6.162E-10 < toldfe=  1.000E-08

 Cartesian components of stress tensor (hartree/bohr^3)
  sigma(1 1)= -5.71113780E-03  sigma(3 2)=  0.00000000E+00
  sigma(2 2)= -3.27874962E-04  sigma(3 1)=  0.00000000E+00
  sigma(3 3)=  1.79731632E-07  sigma(2 1)=  0.00000000E+00


--- !ResultsGS
iteration_state: {dtset: 1, itime: 6, icycle: 1, }
comment   : Summary of ground state results
lattice_vectors:
- [  2.6500000,   4.6000000,   0.0000000, ]
- [ -2.6500000,   4.6000000,   0.0000000, ]
- [  0.0000000,   0.0000000,  30.0000000, ]
lattice_lengths: [   5.30872,    5.30872,   30.00000, ]
lattice_angles: [ 90.000,  90.000,  59.891, ] # degrees, (23, 13, 12)
lattice_volume:   7.3140000E+02
convergence: {deltae: -6.162E-10, res2:  2.554E-05, residm:  5.200E-12, diffor: null, }
etotal    :  -1.99220370E+01
entropy   :   0.00000000E+00
fermie    :   3.46079410E-01
cartesian_stress_tensor: # hartree/bohr^3
- [ -5.71113780E-03,   0.00000000E+00,   0.00000000E+00, ]
- [  0.00000000E+00,  -3.27874962E-04,   0.00000000E+00, ]
- [  0.00000000E+00,   0.00000000E+00,   1.79731632E-07, ]
pressure_GPa:   5.9223E+01
xred      :
- [ -2.5000E-01,   1.2500E+00,   2.5000E-01, Si]
- [  1.2500E+00,  -2.5000E-01,   2.5000E-01,  C]
- [  1.2500E+00,  -2.5000E-01,   7.5000E-01, Si]
- [ -2.5000E-01,   1.2500E+00,   7.5000E-01,  C]
cartesian_forces: # hartree/bohr
- [ -2.05855120E-05,   2.19818588E-22,  -0.00000000E+00, ]
- [  2.05309955E-05,  -3.29865298E-22,  -0.00000000E+00, ]
- [  2.05855120E-05,   1.48456606E-22,  -0.00000000E+00, ]
- [ -2.05309955E-05,  -3.84098966E-23,  -0.00000000E+00, ]
force_length_stats: {min:   2.05309955E-05, max:   2.05855120E-05, mean:   2.05582537E-05, }
...

 Integrated electronic density in atomic spheres:
 ------------------------------------------------
 Atom  Sphere_radius  Integrated_density
    1        2.00000          2.81023659
    2        2.00000          4.92730396
    3        2.00000          2.81023659
    4        2.00000          4.92730396

---OUTPUT-----------------------------------------------------------------------

 Cartesian coordinates (xcart) [bohr]
 -3.97499482690626E+00  4.60000000000000E+00  7.50000000000000E+00
  3.97499536979606E+00  4.60000000000000E+00  7.50000000000000E+00
  3.97499482690626E+00  4.60000000000000E+00  2.25000000000000E+01
 -3.97499536979606E+00  4.60000000000000E+00  2.25000000000000E+01
 Reduced coordinates (xred)
 -2.49999023944577E-01  1.24999902394458E+00  2.50000000000000E-01
  1.24999912637662E+00 -2.49999126376615E-01  2.50000000000000E-01
  1.24999902394458E+00 -2.49999023944577E-01  7.50000000000000E-01
 -2.49999126376615E-01  1.24999912637661E+00  7.50000000000000E-01
 Cartesian forces (fcart) [Ha/bohr]; max,rms= 2.05855E-05 1.18693E-05 (free atoms)
 -2.05855119509959E-05  2.19818588286921E-22 -0.00000000000000E+00
  2.05309955080259E-05 -3.29865297882466E-22 -0.00000000000000E+00
  2.05855119509959E-05  1.48456606171471E-22 -0.00000000000000E+00
 -2.05309955080259E-05 -3.84098965759254E-23 -0.00000000000000E+00
 Gradient of E wrt nuclear positions in reduced coordinates (gred)
  5.45516066701391E-05 -5.45516066701391E-05 -0.00000000000000E+00
 -5.44071380962686E-05  5.44071380962686E-05 -0.00000000000000E+00
 -5.45516066701391E-05  5.45516066701391E-05 -0.00000000000000E+00
  5.44071380962686E-05 -5.44071380962686E-05  0.00000000000000E+00
 Total energy (etotal) [Ha]= -1.99220369807606E+01

 Difference of energy with previous step (new-old):
           Absolute (Ha)=-1.67312E-04
           Relative     =-8.39838E-06

 At Broyd/MD step   6, gradients are converged : 
  max grad (force/stress) = 2.0586E-05 < tolmxf= 5.0000E-05 ha/bohr (free atoms)

================================================================================

 ----iterations are completed or convergence reached----

 Mean square residual over all n,k,spin=   21.002E-13; max=  52.000E-13
 reduced coordinates (array xred) for    4 atoms
      -0.249999023945      1.249999023945      0.250000000000
       1.249999126377     -0.249999126377      0.250000000000
       1.249999023945     -0.249999023945      0.750000000000
      -0.249999126377      1.249999126377      0.750000000000
 rms dE/dt=  4.4482E-05; max dE/dt=  5.4552E-05; dE/dt below (all hartree)
    1       0.000054551607     -0.000054551607      0.000000000000
    2      -0.000054407138      0.000054407138      0.000000000000
    3      -0.000054551607      0.000054551607      0.000000000000
    4       0.000054407138     -0.000054407138      0.000000000000

 cartesian coordinates (angstrom) at end:
    1     -2.10347666666194     2.43421515951400     3.96882906442500
    2      2.10347695394685     2.43421515951400     3.96882906442500
    3      2.10347666666194     2.43421515951400    11.90648719327500
    4     -2.10347695394685     2.43421515951400    11.90648719327500

 cartesian forces (hartree/bohr) at end:
    1     -0.00002058551195     0.00000000000000    -0.00000000000000
    2      0.00002053099551    -0.00000000000000    -0.00000000000000
    3      0.00002058551195     0.00000000000000    -0.00000000000000
    4     -0.00002053099551    -0.00000000000000    -0.00000000000000
 frms,max,avg= 1.1869324E-05 2.0585512E-05   0.000E+00  0.000E+00  0.000E+00 h/b

 cartesian forces (eV/Angstrom) at end:
    1     -0.00105854949639     0.00000000000000    -0.00000000000000
    2      0.00105574614841    -0.00000000000000    -0.00000000000000
    3      0.00105854949639     0.00000000000000    -0.00000000000000
    4     -0.00105574614841    -0.00000000000000    -0.00000000000000
 frms,max,avg= 6.1034512E-04 1.0585495E-03   0.000E+00  0.000E+00  0.000E+00 e/A
 length scales=  1.000000000000  1.000000000000  1.000000000000 bohr
              =  0.529177208590  0.529177208590  0.529177208590 angstroms
 prteigrs : about to open file hBNo_DS1_EIG
 Fermi (or HOMO) energy (hartree) =   0.34608   Average Vxc (hartree)=  -0.20028
 Eigenvalues (hartree) for nkpt=  14  k points:
 kpt#   1, nband=  8, wtk=  0.03125, kpt=  0.0000  0.0000  0.1250 (reduced coord)
  -0.56256   -0.56256   -0.19987   -0.19969   -0.12502   -0.12502    0.06525    0.06525
      occupation numbers for kpt#   1
   2.00000    2.00000    2.00000    2.00000    2.00000    2.00000    2.00000    2.00000
 prteigrs : prtvol=0 or 1, do not print more k-points.


--- !EnergyTerms
iteration_state     : {dtset: 1, itime: 6, icycle: 1, }
comment             : Components of total free energy in Hartree
kinetic             :  1.35214674391018E+01
hartree             :  2.48586760733827E+01
xc                  : -7.94987934979392E+00
Ewald energy        :  7.36852350089632E+00
psp_core            :  5.97503404517149E-01
local_psp           : -5.89762923458903E+01
non_local_psp       :  6.57964297025717E-01
internal            : -1.99220369807605E+01
'-kT*entropy'       : -3.22177675736913E-14
total_energy        : -1.99220369807606E+01
total_energy_eV     : -5.42106195556591E+02
band_energy         : -3.70455468890434E+00
...

 rms coord change=  4.7357E-01   atom, delta coord (reduced):
     1       -0.579999023945      0.579999023945      0.000000000000
     2        0.579999126377     -0.579999126377      0.000000000000
     3        0.579999023945     -0.579999023945      0.000000000000
     4       -0.579999126377      0.579999126377      0.000000000000

 Cartesian components of stress tensor (hartree/bohr^3)
  sigma(1 1)= -5.71113780E-03  sigma(3 2)=  0.00000000E+00
  sigma(2 2)= -3.27874962E-04  sigma(3 1)=  0.00000000E+00
  sigma(3 3)=  1.79731632E-07  sigma(2 1)=  0.00000000E+00

-Cartesian components of stress tensor (GPa)         [Pressure=  5.9223E+01 GPa]
- sigma(1 1)= -1.68027447E+02  sigma(3 2)=  0.00000000E+00
- sigma(2 2)= -9.64641280E+00  sigma(3 1)=  0.00000000E+00
- sigma(3 3)=  5.28788630E-03  sigma(2 1)=  0.00000000E+00

== END DATASET(S) ==============================================================
================================================================================
  
 -outvars: echo values of variables after computation  --------
            acell      1.0000000000E+00  1.0000000000E+00  1.0000000000E+00 Bohr
              amu      2.80855000E+01  1.20110000E+01
           diemac      1.00000000E+01
           diemix      7.00000000E-01
             ecut      7.50000000E+01 Hartree
           etotal1    -1.9922036981E+01
            fcart1    -2.0585511951E-05  2.1981858829E-22 -0.0000000000E+00
                       2.0530995508E-05 -3.2986529788E-22 -0.0000000000E+00
                       2.0585511951E-05  1.4845660617E-22 -0.0000000000E+00
                      -2.0530995508E-05 -3.8409896576E-23 -0.0000000000E+00
-          fftalg         112
           ionmov           2
              ixc          11
           jdtset        1
              kpt      0.00000000E+00  0.00000000E+00  1.25000000E-01
                       2.50000000E-01  0.00000000E+00  1.25000000E-01
                       5.00000000E-01  0.00000000E+00  1.25000000E-01
                       2.50000000E-01  2.50000000E-01  1.25000000E-01
                       5.00000000E-01  2.50000000E-01  1.25000000E-01
                      -2.50000000E-01  2.50000000E-01  1.25000000E-01
                       5.00000000E-01  5.00000000E-01  1.25000000E-01
                       0.00000000E+00  0.00000000E+00  3.75000000E-01
                       2.50000000E-01  0.00000000E+00  3.75000000E-01
                       5.00000000E-01  0.00000000E+00  3.75000000E-01
                       2.50000000E-01  2.50000000E-01  3.75000000E-01
                       5.00000000E-01  2.50000000E-01  3.75000000E-01
                      -2.50000000E-01  2.50000000E-01  3.75000000E-01
                       5.00000000E-01  5.00000000E-01  3.75000000E-01
         kptrlatt        4    0    0      0    4    0      0    0    4
          kptrlen      2.12000000E+01
P           mkmem          14
            natom           4
            nband           8
           ndtset           1
            ngfft          45      45     240
             nkpt          14
            nstep         100
             nsym           8
            ntime        1000
           ntypat           2
              occ      2.000000  2.000000  2.000000  2.000000  2.000000  2.000000
                       2.000000  2.000000
                       2.000000  2.000000  2.000000  2.000000  2.000000  2.000000
                       2.000000  2.000000
                       2.000000  2.000000  2.000000  2.000000  2.000000  2.000000
                       2.000000  2.000000
                       2.000000  2.000000  2.000000  2.000000  2.000000  2.000000
                       2.000000  2.000000
                       2.000000  2.000000  2.000000  2.000000  2.000000  2.000000
                       2.000000  2.000000
                       2.000000  2.000000  2.000000  2.000000  2.000000  2.000000
                       2.000000  2.000000
                       2.000000  2.000000  2.000000  2.000000  2.000000  2.000000
                       2.000000  2.000000
                       2.000000  2.000000  2.000000  2.000000  2.000000  2.000000
                       2.000000  2.000000
                       2.000000  2.000000  2.000000  2.000000  2.000000  2.000000
                       2.000000  2.000000
                       2.000000  2.000000  2.000000  2.000000  2.000000  2.000000
                       2.000000  2.000000
                       2.000000  2.000000  2.000000  2.000000  2.000000  2.000000
                       2.000000  2.000000
                       2.000000  2.000000  2.000000  2.000000  2.000000  2.000000
                       2.000000  2.000000
                       2.000000  2.000000  2.000000  2.000000  2.000000  2.000000
                       2.000000  2.000000
                       2.000000  2.000000  2.000000  2.000000  2.000000  2.000000
                       2.000000  2.000000
           occopt           3
            rprim      2.6500000000E+00  4.6000000000E+00  0.0000000000E+00
                      -2.6500000000E+00  4.6000000000E+00  0.0000000000E+00
                       0.0000000000E+00  0.0000000000E+00  3.0000000000E+01
           shiftk      0.00000000E+00  0.00000000E+00  5.00000000E-01
          spgroup          63
           strten1    -5.7111377980E-03 -3.2787496196E-04  1.7973163238E-07
                       0.0000000000E+00  0.0000000000E+00  0.0000000000E+00
           symrel      1  0  0   0  1  0   0  0  1      -1  0  0   0 -1  0   0  0 -1
                       0 -1  0  -1  0  0   0  0 -1       0  1  0   1  0  0   0  0  1
                      -1  0  0   0 -1  0   0  0  1       1  0  0   0  1  0   0  0 -1
                       0  1  0   1  0  0   0  0 -1       0 -1  0  -1  0  0   0  0  1
            tnons      0.0000000  0.0000000  0.0000000    -0.0000000 -0.0000000  0.0000000
                      -0.0000000 -0.0000000  0.5000000     0.0000000  0.0000000  0.5000000
                      -0.0000000 -0.0000000  0.5000000     0.0000000  0.0000000  0.5000000
                       0.0000000  0.0000000  0.0000000    -0.0000000 -0.0000000  0.0000000
           toldfe      1.00000000E-08 Hartree
            typat      1  2  1  2
              wtk        0.03125    0.12500    0.06250    0.06250    0.12500    0.06250
                         0.03125    0.03125    0.12500    0.06250    0.06250    0.12500
                         0.06250    0.03125
           xangst     -2.1034766667E+00  2.4342151595E+00  3.9688290644E+00
                       2.1034769539E+00  2.4342151595E+00  3.9688290644E+00
                       2.1034766667E+00  2.4342151595E+00  1.1906487193E+01
                      -2.1034769539E+00  2.4342151595E+00  1.1906487193E+01
            xcart     -3.9749948269E+00  4.6000000000E+00  7.5000000000E+00
                       3.9749953698E+00  4.6000000000E+00  7.5000000000E+00
                       3.9749948269E+00  4.6000000000E+00  2.2500000000E+01
                      -3.9749953698E+00  4.6000000000E+00  2.2500000000E+01
             xred     -2.4999902394E-01  1.2499990239E+00  2.5000000000E-01
                       1.2499991264E+00 -2.4999912638E-01  2.5000000000E-01
                       1.2499990239E+00 -2.4999902394E-01  7.5000000000E-01
                      -2.4999912638E-01  1.2499991264E+00  7.5000000000E-01
            znucl       14.00000    6.00000

================================================================================

 The spacegroup number, the magnetic point group, and/or the number of symmetries
 have changed between the initial recognition based on the input file
 and a postprocessing based on the final acell, rprim, and xred.
 More details in the log file.


- Timing analysis has been suppressed with timopt=0



================================================================================

 Suggested references for the acknowledgment of ABINIT usage.

 The users of ABINIT have little formal obligations with respect to the ABINIT group
 (those specified in the GNU General Public License, http://www.gnu.org/copyleft/gpl.txt).
 However, it is common practice in the scientific literature,
 to acknowledge the efforts of people that have made the research possible.
 In this spirit, please find below suggested citations of work written by ABINIT developers,
 corresponding to implementations inside of ABINIT that you have used in the present run.
 Note also that it will be of great value to readers of publications presenting these results,
 to read papers enabling them to understand the theoretical formalism and details
 of the ABINIT implementation.
 For information on why they are suggested, see also https://docs.abinit.org/theory/acknowledgments.
-
- [1] The Abinit project: Impact, environment and recent developments.
- Computer Phys. Comm. 248, 107042 (2020).
- X.Gonze, B. Amadon, G. Antonius, F.Arnardi, L.Baguet, J.-M.Beuken,
- J.Bieder, F.Bottin, J.Bouchet, E.Bousquet, N.Brouwer, F.Bruneval,
- G.Brunin, T.Cavignac, J.-B. Charraud, Wei Chen, M.Cote, S.Cottenier,
- J.Denier, G.Geneste, Ph.Ghosez, M.Giantomassi, Y.Gillet, O.Gingras,
- D.R.Hamann, G.Hautier, Xu He, N.Helbig, N.Holzwarth, Y.Jia, F.Jollet,
- W.Lafargue-Dit-Hauret, K.Lejaeghere, M.A.L.Marques, A.Martin, C.Martins,
- H.P.C. Miranda, F.Naccarato, K. Persson, G.Petretto, V.Planes, Y.Pouillon,
- S.Prokhorenko, F.Ricci, G.-M.Rignanese, A.H.Romero, M.M.Schmitt, M.Torrent,
- M.J.van Setten, B.Van Troeye, M.J.Verstraete, G.Zerah and J.W.Zwanzig
- Comment: the fifth generic paper describing the ABINIT project.
- Note that a version of this paper, that is not formatted for Computer Phys. Comm. 
- is available at https://www.abinit.org/sites/default/files/ABINIT20.pdf .
- The licence allows the authors to put it on the Web.
- DOI and bibtex: see https://docs.abinit.org/theory/bibliography/#gonze2020
-
- [2] Optimized norm-conserving Vanderbilt pseudopotentials.
- D.R. Hamann, Phys. Rev. B 88, 085117 (2013).
- Comment: Some pseudopotential generated using the ONCVPSP code were used.
- DOI and bibtex: see https://docs.abinit.org/theory/bibliography/#hamann2013
-
- [3] ABINIT: Overview, and focus on selected capabilities
- J. Chem. Phys. 152, 124102 (2020).
- A. Romero, D.C. Allan, B. Amadon, G. Antonius, T. Applencourt, L.Baguet,
- J.Bieder, F.Bottin, J.Bouchet, E.Bousquet, F.Bruneval,
- G.Brunin, D.Caliste, M.Cote,
- J.Denier, C. Dreyer, Ph.Ghosez, M.Giantomassi, Y.Gillet, O.Gingras,
- D.R.Hamann, G.Hautier, F.Jollet, G. Jomard,
- A.Martin, 
- H.P.C. Miranda, F.Naccarato, G.Petretto, N.A. Pike, V.Planes,
- S.Prokhorenko, T. Rangel, F.Ricci, G.-M.Rignanese, M.Royo, M.Stengel, M.Torrent,
- M.J.van Setten, B.Van Troeye, M.J.Verstraete, J.Wiktor, J.W.Zwanziger, and X.Gonze.
- Comment: a global overview of ABINIT, with focus on selected capabilities .
- Note that a version of this paper, that is not formatted for J. Chem. Phys 
- is available at https://www.abinit.org/sites/default/files/ABINIT20_JPC.pdf .
- The licence allows the authors to put it on the Web.
- DOI and bibtex: see https://docs.abinit.org/theory/bibliography/#romero2020
-
- [4] Recent developments in the ABINIT software package.
- Computer Phys. Comm. 205, 106 (2016).
- X.Gonze, F.Jollet, F.Abreu Araujo, D.Adams, B.Amadon, T.Applencourt,
- C.Audouze, J.-M.Beuken, J.Bieder, A.Bokhanchuk, E.Bousquet, F.Bruneval
- D.Caliste, M.Cote, F.Dahm, F.Da Pieve, M.Delaveau, M.Di Gennaro,
- B.Dorado, C.Espejo, G.Geneste, L.Genovese, A.Gerossier, M.Giantomassi,
- Y.Gillet, D.R.Hamann, L.He, G.Jomard, J.Laflamme Janssen, S.Le Roux,
- A.Levitt, A.Lherbier, F.Liu, I.Lukacevic, A.Martin, C.Martins,
- M.J.T.Oliveira, S.Ponce, Y.Pouillon, T.Rangel, G.-M.Rignanese,
- A.H.Romero, B.Rousseau, O.Rubel, A.A.Shukri, M.Stankovski, M.Torrent,
- M.J.Van Setten, B.Van Troeye, M.J.Verstraete, D.Waroquier, J.Wiktor,
- B.Xu, A.Zhou, J.W.Zwanziger.
- Comment: the fourth generic paper describing the ABINIT project.
- Note that a version of this paper, that is not formatted for Computer Phys. Comm. 
- is available at https://www.abinit.org/sites/default/files/ABINIT16.pdf .
- The licence allows the authors to put it on the Web.
- DOI and bibtex: see https://docs.abinit.org/theory/bibliography/#gonze2016
-
- And optionally:
-
- [5] ABINIT: First-principles approach of materials and nanosystem properties.
- Computer Phys. Comm. 180, 2582-2615 (2009).
- X. Gonze, B. Amadon, P.-M. Anglade, J.-M. Beuken, F. Bottin, P. Boulanger, F. Bruneval,
- D. Caliste, R. Caracas, M. Cote, T. Deutsch, L. Genovese, Ph. Ghosez, M. Giantomassi
- S. Goedecker, D.R. Hamann, P. Hermet, F. Jollet, G. Jomard, S. Leroux, M. Mancini, S. Mazevet,
- M.J.T. Oliveira, G. Onida, Y. Pouillon, T. Rangel, G.-M. Rignanese, D. Sangalli, R. Shaltaf,
- M. Torrent, M.J. Verstraete, G. Zerah, J.W. Zwanziger
- Comment: the third generic paper describing the ABINIT project.
- Note that a version of this paper, that is not formatted for Computer Phys. Comm. 
- is available at https://www.abinit.org/sites/default/files/ABINIT_CPC_v10.pdf .
- The licence allows the authors to put it on the Web.
- DOI and bibtex: see https://docs.abinit.org/theory/bibliography/#gonze2009
-
- Proc.   0 individual time (sec): cpu=       1114.1  wall=       1117.7

================================================================================

 Calculation completed.
.Delivered  59 WARNINGs and   4 COMMENTs to log file.
+Overall time at end (sec) : cpu=       1114.1  wall=       1117.7
