
.Version 10.0.5 of ABINIT, released Apr 2024.
.(MPI version, prepared for a x86_64_linux_gnu13.2 computer) 

.Copyright (C) 1998-2024 ABINIT group . 
 ABINIT comes with ABSOLUTELY NO WARRANTY.
 It is free software, and you are welcome to redistribute it
 under certain conditions (GNU General Public License,
 see ~abinit/COPYING or http://www.gnu.org/copyleft/gpl.txt).

 ABINIT is a project of the Universite Catholique de Louvain,
 Corning Inc. and other collaborators, see ~abinit/doc/developers/contributors.txt .
 Please read https://docs.abinit.org/theory/acknowledgments for suggested
 acknowledgments of the ABINIT effort.
 For more information, see https://www.abinit.org .

.Starting date : Mon 10 Jun 2024.
- ( at 15h47 )
  
- input  file    -> run.abi
- output file    -> run.abo
- root for input  files -> runi
- root for output files -> runo

 DATASET    1 : space group Cm c m (# 63); Bravais oC (1-face-center ortho.)
================================================================================
 Values of the parameters that define the memory need for DATASET  1.
     intxc =       0    ionmov =       0      iscf =       7    lmnmax =       6
     lnmax =       6     mgfft =     192  mpssoang =       3    mqgrid =    9550
     natom =       4  nloc_mem =       1    nspden =       1   nspinor =       1
    nsppol =       1      nsym =       8    n1xccc =    2501    ntypat =       2
    occopt =       1   xclevel =       2
-    mband =           9        mffmem =           1         mkmem =          50
       mpw =       12459          nfft =      248832          nkpt =          50
================================================================================
P This job should need less than                     175.531 Mbytes of memory.
  Rough estimation (10% accuracy) of disk space for files :
_ WF disk file :     85.551 Mbytes ; DEN or POT disk file :      1.900 Mbytes.
================================================================================

 DATASET    2 : space group Cm c m (# 63); Bravais oC (1-face-center ortho.)
================================================================================
 Values of the parameters that define the memory need for DATASET  2.
     intxc =       0    ionmov =       0      iscf =      -2    lmnmax =       6
     lnmax =       6     mgfft =     192  mpssoang =       3    mqgrid =    9550
     natom =       4  nloc_mem =       1    nspden =       1   nspinor =       1
    nsppol =       1      nsym =       8    n1xccc =    2501    ntypat =       2
    occopt =       1   xclevel =       2
-    mband =           8        mffmem =           1         mkmem =          38
       mpw =       12450          nfft =      248832          nkpt =          38
================================================================================
P This job should need less than                     115.611 Mbytes of memory.
  Rough estimation (10% accuracy) of disk space for files :
_ WF disk file :     57.753 Mbytes ; DEN or POT disk file :      1.900 Mbytes.
================================================================================

--------------------------------------------------------------------------------
------------- Echo of variables that govern the present computation ------------
--------------------------------------------------------------------------------
-
- outvars: echo of selected default values                                      
-   iomode0 =  0 , fftalg0 =112 , wfoptalg0 =  0
-
- outvars: echo of global parameters not present in the input file              
-  max_nthreads =    0
-
 -outvars: echo values of preprocessed input variables --------
            acell      1.0000000000E+00  1.0000000000E+00  1.0000000000E+00 Bohr
              amu      2.80855000E+01  1.20110000E+01
           diemac      1.20000000E+01
             ecut      5.00000000E+01 Hartree
           enunit1          0
           enunit2          1
-          fftalg         112
           getden1          0
           getden2         -1
             iscf1          7
             iscf2         -2
           istwfk2       3    0    0    0    0    0    0    0    0    0
                         2    0    0    0    0    0    0    0    0    0
                         8    0    0    0    0    0    0    0    0    0
                         0    0    0    0    0    0    0    0
              ixc          11
           jdtset        1    2
              kpt1    -1.25000000E-01  0.00000000E+00  0.00000000E+00
                      -1.25000000E-01  0.00000000E+00  2.50000000E-01
                      -2.50000000E-01  0.00000000E+00  1.25000000E-01
                      -1.25000000E-01  1.25000000E-01  1.25000000E-01
                      -3.75000000E-01  0.00000000E+00  0.00000000E+00
                      -2.50000000E-01  1.25000000E-01  0.00000000E+00
                      -1.25000000E-01  0.00000000E+00  5.00000000E-01
                      -2.50000000E-01  0.00000000E+00  3.75000000E-01
                      -1.25000000E-01  1.25000000E-01  3.75000000E-01
                      -3.75000000E-01  0.00000000E+00  2.50000000E-01
                      -2.50000000E-01  1.25000000E-01  2.50000000E-01
                       5.00000000E-01  0.00000000E+00  1.25000000E-01
                      -3.75000000E-01  1.25000000E-01  1.25000000E-01
                      -2.50000000E-01  2.50000000E-01  1.25000000E-01
                       5.00000000E-01  1.25000000E-01  0.00000000E+00
                      -3.75000000E-01  2.50000000E-01  0.00000000E+00
                      -3.75000000E-01  0.00000000E+00  5.00000000E-01
                      -2.50000000E-01  1.25000000E-01  5.00000000E-01
                       5.00000000E-01  0.00000000E+00  3.75000000E-01
                      -3.75000000E-01  1.25000000E-01  3.75000000E-01
                      -2.50000000E-01  2.50000000E-01  3.75000000E-01
                       5.00000000E-01  1.25000000E-01  2.50000000E-01
                      -3.75000000E-01  2.50000000E-01  2.50000000E-01
                       3.75000000E-01  1.25000000E-01  1.25000000E-01
                       5.00000000E-01  2.50000000E-01  1.25000000E-01
                      -3.75000000E-01  3.75000000E-01  1.25000000E-01
                       2.50000000E-01  1.25000000E-01  0.00000000E+00
                       3.75000000E-01  2.50000000E-01  0.00000000E+00
                       5.00000000E-01  3.75000000E-01  0.00000000E+00
                       5.00000000E-01  1.25000000E-01  5.00000000E-01
                      -3.75000000E-01  2.50000000E-01  5.00000000E-01
                       3.75000000E-01  1.25000000E-01  3.75000000E-01
                       5.00000000E-01  2.50000000E-01  3.75000000E-01
                      -3.75000000E-01  3.75000000E-01  3.75000000E-01
                       2.50000000E-01  1.25000000E-01  2.50000000E-01
                       3.75000000E-01  2.50000000E-01  2.50000000E-01
                       5.00000000E-01  3.75000000E-01  2.50000000E-01
                       0.00000000E+00  0.00000000E+00  1.25000000E-01
                       1.25000000E-01  1.25000000E-01  1.25000000E-01
                       2.50000000E-01  2.50000000E-01  1.25000000E-01
                       3.75000000E-01  3.75000000E-01  1.25000000E-01
                       5.00000000E-01  5.00000000E-01  1.25000000E-01
                       2.50000000E-01  1.25000000E-01  5.00000000E-01
                       3.75000000E-01  2.50000000E-01  5.00000000E-01
                       5.00000000E-01  3.75000000E-01  5.00000000E-01
                       0.00000000E+00  0.00000000E+00  3.75000000E-01
                       1.25000000E-01  1.25000000E-01  3.75000000E-01
                       2.50000000E-01  2.50000000E-01  3.75000000E-01
                       3.75000000E-01  3.75000000E-01  3.75000000E-01
                       5.00000000E-01  5.00000000E-01  3.75000000E-01
              kpt2     5.00000000E-01  0.00000000E+00  0.00000000E+00
                       4.50000000E-01  0.00000000E+00  0.00000000E+00
                       4.00000000E-01  0.00000000E+00  0.00000000E+00
                       3.50000000E-01  0.00000000E+00  0.00000000E+00
                       3.00000000E-01  0.00000000E+00  0.00000000E+00
                       2.50000000E-01  0.00000000E+00  0.00000000E+00
                       2.00000000E-01  0.00000000E+00  0.00000000E+00
                       1.50000000E-01  0.00000000E+00  0.00000000E+00
                       1.00000000E-01  0.00000000E+00  0.00000000E+00
                       5.00000000E-02  0.00000000E+00  0.00000000E+00
                       0.00000000E+00  0.00000000E+00  0.00000000E+00
                       0.00000000E+00  5.00000000E-02  5.00000000E-02
                       0.00000000E+00  1.00000000E-01  1.00000000E-01
                       0.00000000E+00  1.50000000E-01  1.50000000E-01
                       0.00000000E+00  2.00000000E-01  2.00000000E-01
                       0.00000000E+00  2.50000000E-01  2.50000000E-01
                       0.00000000E+00  3.00000000E-01  3.00000000E-01
                       0.00000000E+00  3.50000000E-01  3.50000000E-01
                       0.00000000E+00  4.00000000E-01  4.00000000E-01
                       0.00000000E+00  4.50000000E-01  4.50000000E-01
                       0.00000000E+00  5.00000000E-01  5.00000000E-01
                       5.88235294E-02  5.29411765E-01  5.29411765E-01
                       1.17647059E-01  5.58823529E-01  5.58823529E-01
                       1.76470588E-01  5.88235294E-01  5.88235294E-01
                       2.35294118E-01  6.17647059E-01  6.17647059E-01
                       2.94117647E-01  6.47058824E-01  6.47058824E-01
                       3.52941176E-01  6.76470588E-01  6.76470588E-01
                       4.11764706E-01  7.05882353E-01  7.05882353E-01
                       4.70588235E-01  7.35294118E-01  7.35294118E-01
                       5.29411765E-01  7.64705882E-01  7.64705882E-01
                       5.88235294E-01  7.94117647E-01  7.94117647E-01
                       6.47058824E-01  8.23529412E-01  8.23529412E-01
                       7.05882353E-01  8.52941176E-01  8.52941176E-01
                       7.64705882E-01  8.82352941E-01  8.82352941E-01
                       8.23529412E-01  9.11764706E-01  9.11764706E-01
                       8.82352941E-01  9.41176471E-01  9.41176471E-01
                       9.41176471E-01  9.70588235E-01  9.70588235E-01
                       1.00000000E+00  1.00000000E+00  1.00000000E+00
           kptopt1          1
           kptopt2         -3
         kptrlatt        0    8    0     -8    8    0     -4    4    4
          kptrlen1     4.24000000E+01
          kptrlen2     3.00000000E+01
P           mkmem1         50
P           mkmem2         38
            natom           4
            nband1          9
            nband2          8
           nbdbuf1          0
           nbdbuf2          2
           ndtset           2
           ndivsm1          0
           ndivsm2         10
            ngfft          36      36     192
             nkpt1         50
             nkpt2         38
            nstep          50
             nsym           8
           ntypat           2
              occ      2.000000  2.000000  2.000000  2.000000  2.000000  2.000000
                       2.000000  2.000000  0.000000
            rprim      2.6500000000E+00  4.6000000000E+00  0.0000000000E+00
                      -2.6500000000E+00  4.6000000000E+00  0.0000000000E+00
                       0.0000000000E+00  0.0000000000E+00  3.0000000000E+01
           shiftk1     0.00000000E+00  0.00000000E+00  5.00000000E-01
           shiftk2     5.00000000E-01  5.00000000E-01  5.00000000E-01
          spgroup          63
           symrel      1  0  0   0  1  0   0  0  1      -1  0  0   0 -1  0   0  0 -1
                       0 -1  0  -1  0  0   0  0 -1       0  1  0   1  0  0   0  0  1
                      -1  0  0   0 -1  0   0  0  1       1  0  0   0  1  0   0  0 -1
                       0  1  0   1  0  0   0  0 -1       0 -1  0  -1  0  0   0  0  1
            tnons      0.0000000  0.0000000  0.0000000    -0.0000000 -0.0000000  0.0000000
                      -0.0000000 -0.0000000  0.5000000     0.0000000  0.0000000  0.5000000
                      -0.0000000 -0.0000000  0.5000000     0.0000000  0.0000000  0.5000000
                       0.0000000  0.0000000  0.0000000    -0.0000000 -0.0000000  0.0000000
           toldfe1     1.00000000E-08 Hartree
           toldfe2     0.00000000E+00 Hartree
           tolwfr1     0.00000000E+00
           tolwfr2     1.00000000E-12
            typat      1  2  1  2
              wtk1       0.01563    0.03125    0.03125    0.01563    0.01563    0.01563
                         0.01563    0.03125    0.01563    0.03125    0.03125    0.01563
                         0.03125    0.01563    0.01563    0.01563    0.01563    0.01563
                         0.01563    0.03125    0.01563    0.03125    0.03125    0.03125
                         0.03125    0.01563    0.01563    0.01563    0.01563    0.01563
                         0.01563    0.03125    0.03125    0.01563    0.03125    0.03125
                         0.03125    0.00781    0.01563    0.01563    0.01563    0.00781
                         0.01563    0.01563    0.01563    0.00781    0.01563    0.01563
                         0.01563    0.00781
              wtk2       1.00000    1.00000    1.00000    1.00000    1.00000    1.00000
                         1.00000    1.00000    1.00000    1.00000    1.00000    1.00000
                         1.00000    1.00000    1.00000    1.00000    1.00000    1.00000
                         1.00000    1.00000    1.00000    1.00000    1.00000    1.00000
                         1.00000    1.00000    1.00000    1.00000    1.00000    1.00000
                         1.00000    1.00000    1.00000    1.00000    1.00000    1.00000
                         1.00000    1.00000
           xangst     -4.7678866494E-01  2.4342151595E+00  3.9688290644E+00
                       4.7678866494E-01  2.4342151595E+00  3.9688290644E+00
                       4.7678866494E-01  2.4342151595E+00  1.1906487193E+01
                      -4.7678866494E-01  2.4342151595E+00  1.1906487193E+01
            xcart     -9.0100000000E-01  4.6000000000E+00  7.5000000000E+00
                       9.0100000000E-01  4.6000000000E+00  7.5000000000E+00
                       9.0100000000E-01  4.6000000000E+00  2.2500000000E+01
                      -9.0100000000E-01  4.6000000000E+00  2.2500000000E+01
             xred      3.3000000000E-01  6.7000000000E-01  2.5000000000E-01
                       6.7000000000E-01  3.3000000000E-01  2.5000000000E-01
                       6.7000000000E-01  3.3000000000E-01  7.5000000000E-01
                       3.3000000000E-01  6.7000000000E-01  7.5000000000E-01
            znucl       14.00000    6.00000

================================================================================

 chkinp: Checking input parameters for consistency, jdtset=   1.

 chkinp: Checking input parameters for consistency, jdtset=   2.

================================================================================
== DATASET  1 ==================================================================
-   mpi_nproc: 1, omp_nthreads: -1 (-1 if OMP is not activated)


--- !DatasetInfo
iteration_state: {dtset: 1, }
dimensions: {natom: 4, nkpt: 50, mband: 9, nsppol: 1, nspinor: 1, nspden: 1, mpw: 12459, }
cutoff_energies: {ecut:  50.0, pawecutdg:  -1.0, }
electrons: {nelect:   1.60000000E+01, charge:   0.00000000E+00, occopt:   1.00000000E+00, tsmear:   1.00000000E-02, }
meta: {optdriver: 0, ionmov: 0, optcell: 0, iscf: 7, paral_kgb: 0, }
...

 Exchange-correlation functional for the present dataset will be:
  GGA: Perdew-Burke-Ernzerhof functional - ixc=11
 Citation for XC functional:
  J.P.Perdew, K.Burke, M.Ernzerhof, PRL 77, 3865 (1996)

 Real(R)+Recip(G) space primitive vectors, cartesian coordinates (Bohr,Bohr^-1):
 R(1)=  2.6500000  4.6000000  0.0000000  G(1)=  0.1886792  0.1086957  0.0000000
 R(2)= -2.6500000  4.6000000  0.0000000  G(2)= -0.1886792  0.1086957  0.0000000
 R(3)=  0.0000000  0.0000000 30.0000000  G(3)=  0.0000000  0.0000000  0.0333333
 Unit cell volume ucvol=  7.3140000E+02 bohr^3
 Angles (23,13,12)=  9.00000000E+01  9.00000000E+01  5.98913669E+01 degrees

 getcut: wavevector=  0.0000  0.0000  0.0000  ngfft=  36  36 192
         ecut(hartree)=     50.000   => boxcut(ratio)=   2.01062

--- Pseudopotential description ------------------------------------------------
- pspini: atom type   1  psp file is /home/hrishi/abinit-10.0.5/Pseudopotentials/Si.psp8
- pspatm: opening atomic psp file    /home/hrishi/abinit-10.0.5/Pseudopotentials/Si.psp8
- Si    ONCVPSP-3.2.3.1  r_core=   1.60303   1.72197   1.91712
- 14.00000   4.00000    170510                znucl, zion, pspdat
    8   11    2    4       600   0.00000      pspcod,pspxc,lmax,lloc,mmax,r2well
    5.99000000000000    4.00000000000000    0.00000000000000   rchrg,fchrg,qchrg
     nproj     2     2     2
     extension_switch     1
  pspatm : epsatm=    9.34321699
         --- l  ekb(1:nproj) -->
             0    5.168965    0.829883
             1    2.571282    0.578307
             2   -2.427311   -0.488097
 pspatm: atomic psp has been read  and splines computed

- pspini: atom type   2  psp file is /home/hrishi/abinit-10.0.5/Pseudopotentials/C.psp8
- pspatm: opening atomic psp file    /home/hrishi/abinit-10.0.5/Pseudopotentials/C.psp8
- C     ONCVPSP-3.2.3.1  r_core=   1.20440   1.26326
-  6.00000   4.00000    170503                znucl, zion, pspdat
    8   11    1    4       600   0.00000      pspcod,pspxc,lmax,lloc,mmax,r2well
    5.99000000000000    4.00000000000000    0.00000000000000   rchrg,fchrg,qchrg
     nproj     2     2
     extension_switch     1
  pspatm : epsatm=    4.31347020
         --- l  ekb(1:nproj) -->
             0    6.481548    0.385504
             1   -4.199961   -0.877517
 pspatm: atomic psp has been read  and splines computed

   4.37013990E+02                                ecore*ucvol(ha*bohr**3)
--------------------------------------------------------------------------------

_setup2: Arith. and geom. avg. npw (full set) are   12351.883   12351.838

================================================================================

--- !BeginCycle
iteration_state: {dtset: 1, }
solver: {iscf: 7, nstep: 50, nline: 4, wfoptalg: 0, }
tolerances: {toldfe: 1.00E-08, }
...

     iter   Etot(hartree)      deltaE(h)  residm     vres2
 ETOT  1  -16.544081876650    -1.654E+01 1.818E-01 1.477E+04
 ETOT  2  -17.131603990137    -5.875E-01 2.147E-02 3.502E+03
 ETOT  3  -17.804618727747    -6.730E-01 1.620E-02 9.951E+02
 ETOT  4  -17.818313352128    -1.369E-02 2.170E-02 2.286E+02
 ETOT  5  -17.818606482698    -2.931E-04 3.357E-03 1.290E+02
 ETOT  6  -17.818966677882    -3.602E-04 3.933E-03 1.394E+01
 ETOT  7  -17.818967170385    -4.925E-07 8.993E-04 7.825E+00
 ETOT  8  -17.818998990273    -3.182E-05 4.893E-04 2.222E+00
 ETOT  9  -17.819002542943    -3.553E-06 5.374E-04 2.638E-02
 ETOT 10  -17.819002633737    -9.079E-08 9.252E-05 1.371E-02
 ETOT 11  -17.819002663082    -2.934E-08 3.625E-04 3.678E-05
 ETOT 12  -17.819002663619    -5.374E-10 6.827E-05 3.102E-06
 ETOT 13  -17.819002663692    -7.236E-11 2.644E-04 2.309E-07

 At SCF step   13, etot is converged : 
  for the second time, diff in etot=  7.236E-11 < toldfe=  1.000E-08

 Cartesian components of stress tensor (hartree/bohr^3)
  sigma(1 1)= -1.47848235E-02  sigma(3 2)=  0.00000000E+00
  sigma(2 2)= -3.51308336E-04  sigma(3 1)=  0.00000000E+00
  sigma(3 3)=  1.13153587E-07  sigma(2 1)=  0.00000000E+00


--- !ResultsGS
iteration_state: {dtset: 1, }
comment   : Summary of ground state results
lattice_vectors:
- [  2.6500000,   4.6000000,   0.0000000, ]
- [ -2.6500000,   4.6000000,   0.0000000, ]
- [  0.0000000,   0.0000000,  30.0000000, ]
lattice_lengths: [   5.30872,    5.30872,   30.00000, ]
lattice_angles: [ 90.000,  90.000,  59.891, ] # degrees, (23, 13, 12)
lattice_volume:   7.3140000E+02
convergence: {deltae: -7.236E-11, res2:  2.309E-07, residm:  2.644E-04, diffor: null, }
etotal    :  -1.78190027E+01
entropy   :   0.00000000E+00
fermie    :   9.69278962E-03
cartesian_stress_tensor: # hartree/bohr^3
- [ -1.47848235E-02,   0.00000000E+00,   0.00000000E+00, ]
- [  0.00000000E+00,  -3.51308336E-04,   0.00000000E+00, ]
- [  0.00000000E+00,   0.00000000E+00,   1.13153587E-07, ]
pressure_GPa:   1.4844E+02
xred      :
- [  3.3000E-01,   6.7000E-01,   2.5000E-01, Si]
- [  6.7000E-01,   3.3000E-01,   2.5000E-01,  C]
- [  6.7000E-01,   3.3000E-01,   7.5000E-01, Si]
- [  3.3000E-01,   6.7000E-01,   7.5000E-01,  C]
cartesian_forces: # hartree/bohr
- [ -2.99457204E+00,   2.39410421E-17,   5.25907270E-32, ]
- [  2.99457224E+00,  -6.25574967E-17,  -5.25907270E-32, ]
- [  2.99457204E+00,   2.43295242E-17,  -5.25907270E-32, ]
- [ -2.99457224E+00,   1.42869304E-17,   5.25907270E-32, ]
force_length_stats: {min:   2.99457204E+00, max:   2.99457224E+00, mean:   2.99457214E+00, }
...

 Integrated electronic density in atomic spheres:
 ------------------------------------------------
 Atom  Sphere_radius  Integrated_density
    1        2.00000          3.63172916
    2        2.00000          5.08825956
    3        2.00000          3.63172916
    4        2.00000          5.08825956
================================================================================

 ----iterations are completed or convergence reached----

 Mean square residual over all n,k,spin=   22.406E-07; max=  26.439E-05
 reduced coordinates (array xred) for    4 atoms
       0.330000000000      0.670000000000      0.250000000000
       0.670000000000      0.330000000000      0.250000000000
       0.670000000000      0.330000000000      0.750000000000
       0.330000000000      0.670000000000      0.750000000000
 rms dE/dt=  6.4794E+00; max dE/dt=  7.9356E+00; dE/dt below (all hartree)
    1       7.935615908891     -7.935615908891     -0.000000000000
    2      -7.935616429467      7.935616429467      0.000000000000
    3      -7.935615908891      7.935615908891      0.000000000000
    4       7.935616429467     -7.935616429467     -0.000000000000

 cartesian coordinates (angstrom) at end:
    1     -0.47678866493959     2.43421515951400     3.96882906442500
    2      0.47678866493959     2.43421515951400     3.96882906442500
    3      0.47678866493959     2.43421515951400    11.90648719327500
    4     -0.47678866493959     2.43421515951400    11.90648719327500

 cartesian forces (hartree/bohr) at end:
    1     -2.99457204109098     0.00000000000000     0.00000000000000
    2      2.99457223753454    -0.00000000000000    -0.00000000000000
    3      2.99457204109098     0.00000000000000    -0.00000000000000
    4     -2.99457223753454     0.00000000000000     0.00000000000000
 frms,max,avg= 1.7289170E+00 2.9945722E+00   0.000E+00  0.000E+00  0.000E+00 h/b

 cartesian forces (eV/Angstrom) at end:
    1   -153.98707273064963     0.00000000000000     0.00000000000000
    2    153.98708283218249    -0.00000000000000    -0.00000000000000
    3    153.98707273064963     0.00000000000000    -0.00000000000000
    4   -153.98708283218249     0.00000000000000     0.00000000000000
 frms,max,avg= 8.8904481E+01 1.5398708E+02   0.000E+00  0.000E+00  0.000E+00 e/A
 length scales=  1.000000000000  1.000000000000  1.000000000000 bohr
              =  0.529177208590  0.529177208590  0.529177208590 angstroms
 prteigrs : about to open file runo_DS1_EIG
 Fermi (or HOMO) energy (hartree) =   0.00969   Average Vxc (hartree)=  -0.19294
 Eigenvalues (hartree) for nkpt=  50  k points:
 kpt#   1, nband=  9, wtk=  0.01563, kpt= -0.1250  0.0000  0.0000 (reduced coord)
  -0.50556   -0.50556   -0.20979   -0.20967   -0.06059   -0.06059   -0.01655   -0.01651
   0.09682
 prteigrs : prtvol=0 or 1, do not print more k-points.


--- !EnergyTerms
iteration_state     : {dtset: 1, }
comment             : Components of total free energy in Hartree
kinetic             :  1.51071885796824E+01
hartree             :  2.58714926641512E+01
xc                  : -8.26361348292602E+00
Ewald energy        :  1.02022028088483E+01
psp_core            :  5.97503404517149E-01
local_psp           : -6.23631083454666E+01
non_local_psp       :  1.02933170750191E+00
total_energy        : -1.78190026636916E+01
total_energy_eV     : -4.84879721484075E+02
band_energy         : -3.44887980628901E+00
...


 Cartesian components of stress tensor (hartree/bohr^3)
  sigma(1 1)= -1.47848235E-02  sigma(3 2)=  0.00000000E+00
  sigma(2 2)= -3.51308336E-04  sigma(3 1)=  0.00000000E+00
  sigma(3 3)=  1.13153587E-07  sigma(2 1)=  0.00000000E+00

-Cartesian components of stress tensor (GPa)         [Pressure=  1.4844E+02 GPa]
- sigma(1 1)= -4.34984453E+02  sigma(3 2)=  0.00000000E+00
- sigma(2 2)= -1.03358463E+01  sigma(3 1)=  0.00000000E+00
- sigma(3 3)=  3.32909290E-03  sigma(2 1)=  0.00000000E+00

================================================================================
== DATASET  2 ==================================================================
-   mpi_nproc: 1, omp_nthreads: -1 (-1 if OMP is not activated)


--- !DatasetInfo
iteration_state: {dtset: 2, }
dimensions: {natom: 4, nkpt: 38, mband: 8, nsppol: 1, nspinor: 1, nspden: 1, mpw: 12450, }
cutoff_energies: {ecut:  50.0, pawecutdg:  -1.0, }
electrons: {nelect:   1.60000000E+01, charge:   0.00000000E+00, occopt:   1.00000000E+00, tsmear:   1.00000000E-02, }
meta: {optdriver: 0, ionmov: 0, optcell: 0, iscf: -2, paral_kgb: 0, }
...

 mkfilename : getden/=0, take file _DEN from output of DATASET   1.

 Exchange-correlation functional for the present dataset will be:
  GGA: Perdew-Burke-Ernzerhof functional - ixc=11
 Citation for XC functional:
  J.P.Perdew, K.Burke, M.Ernzerhof, PRL 77, 3865 (1996)

 Real(R)+Recip(G) space primitive vectors, cartesian coordinates (Bohr,Bohr^-1):
 R(1)=  2.6500000  4.6000000  0.0000000  G(1)=  0.1886792  0.1086957  0.0000000
 R(2)= -2.6500000  4.6000000  0.0000000  G(2)= -0.1886792  0.1086957  0.0000000
 R(3)=  0.0000000  0.0000000 30.0000000  G(3)=  0.0000000  0.0000000  0.0333333
 Unit cell volume ucvol=  7.3140000E+02 bohr^3
 Angles (23,13,12)=  9.00000000E+01  9.00000000E+01  5.98913669E+01 degrees

 getcut: wavevector=  0.0000  0.0000  0.0000  ngfft=  36  36 192
         ecut(hartree)=     50.000   => boxcut(ratio)=   2.01062
--------------------------------------------------------------------------------


================================================================================
 prteigrs : about to open file runo_DS2_EIG
 Non-SCF case, kpt    1 (  0.50000  0.00000  0.00000), residuals and eigenvalues=
  3.53E-13  9.60E-13  7.23E-13  4.33E-13  4.68E-13  5.09E-13  3.20E-12  9.72E-12
 -3.7112E-01 -3.7112E-01 -2.8450E-01 -2.8450E-01 -1.3091E-01 -1.3090E-01
 -8.1858E-02 -8.1858E-02
 Non-SCF case, kpt    2 (  0.45000  0.00000  0.00000), residuals and eigenvalues=
  2.92E-13  3.27E-13  9.30E-13  8.56E-13  2.43E-13  3.37E-13  1.87E-11  6.07E-12
 -3.8218E-01 -3.8218E-01 -2.7103E-01 -2.7103E-01 -1.3427E-01 -1.3425E-01
 -8.0555E-02 -8.0554E-02
 Non-SCF case, kpt    3 (  0.40000  0.00000  0.00000), residuals and eigenvalues=
  5.88E-13  4.29E-13  4.56E-13  3.24E-13  4.78E-13  9.43E-13  7.17E-12  2.24E-12
 -4.0468E-01 -4.0468E-01 -2.4143E-01 -2.4143E-01 -1.4338E-01 -1.4334E-01
 -7.6694E-02 -7.6693E-02
 Non-SCF case, kpt    4 (  0.35000  0.00000  0.00000), residuals and eigenvalues=
  8.20E-13  8.32E-13  7.34E-13  8.15E-13  7.06E-13  9.88E-13  1.81E-11  2.70E-12
 -4.2873E-01 -4.2873E-01 -2.0604E-01 -2.0604E-01 -1.5600E-01 -1.5595E-01
 -7.0420E-02 -7.0418E-02
 Non-SCF case, kpt    5 (  0.30000  0.00000  0.00000), residuals and eigenvalues=
  9.87E-13  6.42E-13  4.03E-13  8.57E-13  5.66E-13  4.05E-13  4.43E-11  1.47E-11
 -4.5116E-01 -4.5116E-01 -1.6995E-01 -1.6988E-01 -1.6878E-01 -1.6878E-01
 -6.1952E-02 -6.1947E-02
 Non-SCF case, kpt    6 (  0.25000  0.00000  0.00000), residuals and eigenvalues=
  4.93E-13  9.71E-13  6.58E-13  9.84E-13  6.39E-13  9.69E-13  1.14E-10  2.47E-10
 -4.7087E-01 -4.7087E-01 -1.8356E-01 -1.8347E-01 -1.3206E-01 -1.3206E-01
 -5.1506E-02 -5.1498E-02
 Non-SCF case, kpt    7 (  0.20000  0.00000  0.00000), residuals and eigenvalues=
  2.99E-13  3.89E-13  3.98E-13  2.55E-13  2.84E-13  7.29E-13  2.86E-11  5.29E-11
 -4.8737E-01 -4.8737E-01 -1.9573E-01 -1.9562E-01 -9.8401E-02 -9.8398E-02
 -3.9124E-02 -3.9107E-02
 Non-SCF case, kpt    8 (  0.15000  0.00000  0.00000), residuals and eigenvalues=
  4.47E-13  7.77E-13  5.11E-13  4.43E-13  8.38E-13  7.65E-13  2.09E-11  3.38E-12
 -5.0040E-01 -5.0040E-01 -2.0574E-01 -2.0562E-01 -7.1002E-02 -7.0999E-02
 -2.4544E-02 -2.4514E-02
 Non-SCF case, kpt    9 (  0.10000  0.00000  0.00000), residuals and eigenvalues=
  4.70E-13  4.78E-13  3.46E-13  4.09E-13  9.87E-13  9.55E-13  2.59E-10  7.83E-11
 -5.0979E-01 -5.0979E-01 -2.1315E-01 -2.1303E-01 -5.2505E-02 -5.2504E-02
 -8.5729E-03 -8.5287E-03
 Non-SCF case, kpt   10 (  0.05000  0.00000  0.00000), residuals and eigenvalues=
  3.71E-13  7.00E-13  2.49E-13  9.47E-13  8.94E-13  8.83E-13  8.65E-11  7.56E-12
 -5.1547E-01 -5.1546E-01 -2.1770E-01 -2.1757E-01 -4.2501E-02 -4.2501E-02
  4.5631E-03  4.5995E-03
 Non-SCF case, kpt   11 (  0.00000  0.00000  0.00000), residuals and eigenvalues=
  4.53E-13  2.60E-13  4.60E-13  4.40E-13  8.17E-13  9.58E-13  1.25E-09  4.34E-10
 -5.1736E-01 -5.1736E-01 -2.1923E-01 -2.1909E-01 -3.9361E-02 -3.9361E-02
  9.6752E-03  9.6962E-03
 Non-SCF case, kpt   12 (  0.00000  0.05000  0.05000), residuals and eigenvalues=
  7.02E-13  9.61E-13  2.43E-13  4.94E-13  8.10E-13  9.22E-13  6.72E-11  7.35E-10
 -5.1547E-01 -5.1546E-01 -2.1770E-01 -2.1757E-01 -4.2501E-02 -4.2501E-02
  4.5634E-03  4.5993E-03
 Non-SCF case, kpt   13 (  0.00000  0.10000  0.10000), residuals and eigenvalues=
  6.51E-13  7.63E-13  4.80E-13  3.06E-13  5.38E-13  5.32E-13  1.04E-10  7.54E-11
 -5.0979E-01 -5.0979E-01 -2.1315E-01 -2.1303E-01 -5.2505E-02 -5.2504E-02
 -8.5718E-03 -8.5298E-03
 Non-SCF case, kpt   14 (  0.00000  0.15000  0.15000), residuals and eigenvalues=
  8.32E-13  8.53E-13  4.95E-13  8.52E-13  7.94E-13  9.50E-13  5.24E-11  6.45E-12
 -5.0040E-01 -5.0040E-01 -2.0573E-01 -2.0563E-01 -7.1002E-02 -7.0999E-02
 -2.4543E-02 -2.4515E-02
 Non-SCF case, kpt   15 (  0.00000  0.20000  0.20000), residuals and eigenvalues=
  6.97E-13  8.12E-13  3.11E-13  7.05E-13  4.92E-13  7.58E-13  2.68E-12  1.37E-11
 -4.8737E-01 -4.8737E-01 -1.9572E-01 -1.9563E-01 -9.8401E-02 -9.8398E-02
 -3.9122E-02 -3.9109E-02
 Non-SCF case, kpt   16 (  0.00000  0.25000  0.25000), residuals and eigenvalues=
  3.46E-13  7.20E-13  5.82E-13  9.43E-13  4.70E-13  5.10E-13  2.31E-10  6.54E-11
 -4.7087E-01 -4.7087E-01 -1.8355E-01 -1.8348E-01 -1.3206E-01 -1.3206E-01
 -5.1505E-02 -5.1499E-02
 Non-SCF case, kpt   17 (  0.00000  0.30000  0.30000), residuals and eigenvalues=
  4.18E-13  5.01E-13  9.34E-13  4.86E-13  8.38E-13  5.80E-13  1.10E-10  3.27E-11
 -4.5116E-01 -4.5116E-01 -1.6994E-01 -1.6989E-01 -1.6878E-01 -1.6878E-01
 -6.1951E-02 -6.1948E-02
 Non-SCF case, kpt   18 (  0.00000  0.35000  0.35000), residuals and eigenvalues=
  4.32E-13  4.14E-13  2.95E-13  4.14E-13  9.19E-13  2.17E-13  2.73E-11  7.30E-12
 -4.2873E-01 -4.2873E-01 -2.0604E-01 -2.0604E-01 -1.5599E-01 -1.5597E-01
 -7.0419E-02 -7.0418E-02
 Non-SCF case, kpt   19 (  0.00000  0.40000  0.40000), residuals and eigenvalues=
  6.62E-13  6.93E-13  7.77E-13  5.31E-13  6.81E-13  5.23E-13  6.45E-12  6.09E-12
 -4.0468E-01 -4.0468E-01 -2.4143E-01 -2.4143E-01 -1.4336E-01 -1.4335E-01
 -7.6693E-02 -7.6693E-02
 Non-SCF case, kpt   20 (  0.00000  0.45000  0.45000), residuals and eigenvalues=
  7.93E-13  6.76E-13  3.21E-13  6.21E-13  5.61E-13  2.99E-13  1.49E-11  1.88E-11
 -3.8218E-01 -3.8218E-01 -2.7103E-01 -2.7103E-01 -1.3427E-01 -1.3426E-01
 -8.0555E-02 -8.0555E-02
 Non-SCF case, kpt   21 (  0.00000  0.50000  0.50000), residuals and eigenvalues=
  1.93E-13  6.67E-13  5.28E-13  7.10E-13  3.55E-13  5.72E-13  1.61E-12  1.21E-11
 -3.7112E-01 -3.7112E-01 -2.8450E-01 -2.8450E-01 -1.3090E-01 -1.3090E-01
 -8.1858E-02 -8.1858E-02
 Non-SCF case, kpt   22 (  0.05882  0.52941  0.52941), residuals and eigenvalues=
  4.00E-13  2.36E-13  6.58E-13  5.13E-13  6.39E-13  9.83E-13  7.59E-13  5.06E-13
 -3.6985E-01 -3.6985E-01 -2.8248E-01 -2.8248E-01 -1.3022E-01 -1.3022E-01
 -9.1730E-02 -9.1730E-02
 Non-SCF case, kpt   23 (  0.11765  0.55882  0.55882), residuals and eigenvalues=
  5.17E-13  5.13E-13  4.16E-13  4.50E-13  9.68E-13  4.66E-13  7.70E-12  8.14E-12
 -3.6613E-01 -3.6613E-01 -2.7648E-01 -2.7648E-01 -1.2829E-01 -1.2829E-01
 -1.1699E-01 -1.1699E-01
 Non-SCF case, kpt   24 (  0.17647  0.58824  0.58824), residuals and eigenvalues=
  4.18E-13  9.62E-13  3.53E-13  8.81E-13  7.95E-13  4.19E-13  4.11E-13  3.64E-13
 -3.6034E-01 -3.6034E-01 -2.6662E-01 -2.6662E-01 -1.4981E-01 -1.4981E-01
 -1.2554E-01 -1.2554E-01
 Non-SCF case, kpt   25 (  0.23529  0.61765  0.61765), residuals and eigenvalues=
  6.12E-13  8.23E-13  3.42E-13  9.61E-13  5.16E-13  5.19E-13  6.85E-13  4.44E-13
 -3.5337E-01 -3.5337E-01 -2.5327E-01 -2.5327E-01 -1.8383E-01 -1.8383E-01
 -1.2269E-01 -1.2268E-01
 Non-SCF case, kpt   26 (  0.29412  0.64706  0.64706), residuals and eigenvalues=
  2.53E-13  2.67E-13  2.91E-13  5.00E-13  7.46E-13  8.71E-13  2.31E-11  1.04E-11
 -3.4739E-01 -3.4739E-01 -2.3867E-01 -2.3867E-01 -2.1200E-01 -2.1200E-01
 -1.2075E-01 -1.2074E-01
 Non-SCF case, kpt   27 (  0.35294  0.67647  0.67647), residuals and eigenvalues=
  2.54E-13  2.04E-13  3.82E-13  6.11E-13  6.48E-13  6.22E-13  8.15E-13  3.75E-13
 -3.4715E-01 -3.4715E-01 -2.4145E-01 -2.4145E-01 -2.0969E-01 -2.0969E-01
 -1.2094E-01 -1.2093E-01
 Non-SCF case, kpt   28 (  0.41176  0.70588  0.70588), residuals and eigenvalues=
  1.85E-13  2.30E-13  4.25E-13  4.82E-13  3.62E-13  2.72E-13  4.98E-13  6.19E-13
 -3.5825E-01 -3.5824E-01 -2.4506E-01 -2.4506E-01 -1.8738E-01 -1.8738E-01
 -1.2437E-01 -1.2437E-01
 Non-SCF case, kpt   29 (  0.47059  0.73529  0.73529), residuals and eigenvalues=
  5.26E-13  4.09E-13  3.73E-13  3.53E-13  7.00E-13  2.50E-13  3.71E-13  3.92E-13
 -3.7916E-01 -3.7916E-01 -2.3506E-01 -2.3506E-01 -1.6116E-01 -1.6116E-01
 -1.3161E-01 -1.3159E-01
 Non-SCF case, kpt   30 (  0.52941  0.76471  0.76471), residuals and eigenvalues=
  9.26E-13  3.90E-13  2.95E-13  7.25E-13  5.06E-13  3.09E-13  9.05E-13  4.61E-13
 -4.0378E-01 -4.0377E-01 -2.1634E-01 -2.1634E-01 -1.4229E-01 -1.4226E-01
 -1.3281E-01 -1.3281E-01
 Non-SCF case, kpt   31 (  0.58824  0.79412  0.79412), residuals and eigenvalues=
  7.49E-13  6.34E-13  7.18E-13  9.80E-13  3.41E-13  8.90E-13  3.39E-12  2.34E-12
 -4.2824E-01 -4.2824E-01 -1.9266E-01 -1.9266E-01 -1.5532E-01 -1.5528E-01
 -1.0353E-01 -1.0353E-01
 Non-SCF case, kpt   32 (  0.64706  0.82353  0.82353), residuals and eigenvalues=
  6.17E-13  4.23E-13  2.65E-13  9.57E-13  8.74E-13  7.82E-13  5.39E-13  8.77E-13
 -4.5079E-01 -4.5079E-01 -1.6931E-01 -1.6925E-01 -1.6607E-01 -1.6607E-01
 -7.4727E-02 -7.4724E-02
 Non-SCF case, kpt   33 (  0.70588  0.85294  0.85294), residuals and eigenvalues=
  2.07E-13  6.47E-13  8.99E-13  5.53E-13  7.61E-13  3.69E-13  1.47E-11  2.75E-12
 -4.7059E-01 -4.7059E-01 -1.8296E-01 -1.8288E-01 -1.3798E-01 -1.3798E-01
 -4.8162E-02 -4.8155E-02
 Non-SCF case, kpt   34 (  0.76471  0.88235  0.88235), residuals and eigenvalues=
  6.94E-13  4.71E-13  3.04E-13  2.97E-13  7.15E-13  5.96E-13  2.86E-10  3.59E-10
 -4.8717E-01 -4.8717E-01 -1.9524E-01 -1.9514E-01 -1.0982E-01 -1.0982E-01
 -2.5691E-02 -2.5676E-02
 Non-SCF case, kpt   35 (  0.82353  0.91176  0.91176), residuals and eigenvalues=
  7.77E-13  4.88E-13  4.37E-13  5.56E-13  5.72E-13  7.75E-13  1.50E-08  3.90E-09
 -5.0028E-01 -5.0028E-01 -2.0542E-01 -2.0530E-01 -8.3315E-02 -8.3314E-02
 -8.7237E-03 -8.6994E-03
 Non-SCF case, kpt   36 (  0.88235  0.94118  0.94118), residuals and eigenvalues=
  4.89E-13  7.13E-13  2.37E-13  8.31E-13  9.20E-13  9.09E-13  8.84E-11  1.11E-09
 -5.0974E-01 -5.0974E-01 -2.1299E-01 -2.1287E-01 -6.0768E-02 -6.0767E-02
  2.3071E-03  2.3363E-03
 Non-SCF case, kpt   37 (  0.94118  0.97059  0.97059), residuals and eigenvalues=
  8.98E-13  3.21E-13  4.42E-13  3.52E-13  4.93E-13  4.74E-13  1.31E-09  2.38E-09
 -5.1545E-01 -5.1545E-01 -2.1765E-01 -2.1752E-01 -4.5090E-02 -4.5090E-02
  8.0211E-03  8.0464E-03
 Non-SCF case, kpt   38 (  1.00000  1.00000  1.00000), residuals and eigenvalues=
  9.85E-13  6.87E-13  3.49E-13  4.36E-13  6.24E-13  8.39E-13  6.92E-10  1.63E-09
 -5.1736E-01 -5.1736E-01 -2.1923E-01 -2.1909E-01 -3.9361E-02 -3.9361E-02
  9.6752E-03  9.6962E-03


--- !ResultsGS
iteration_state: {dtset: 2, }
comment   : Summary of ground state results
lattice_vectors:
- [  2.6500000,   4.6000000,   0.0000000, ]
- [ -2.6500000,   4.6000000,   0.0000000, ]
- [  0.0000000,   0.0000000,  30.0000000, ]
lattice_lengths: [   5.30872,    5.30872,   30.00000, ]
lattice_angles: [ 90.000,  90.000,  59.891, ] # degrees, (23, 13, 12)
lattice_volume:   7.3140000E+02
convergence: {deltae:  0.000E+00, res2:  0.000E+00, residm:  9.878E-13, diffor:  0.000E+00, }
etotal    :  -1.78190027E+01
entropy   :   0.00000000E+00
fermie    :   9.69278962E-03
cartesian_stress_tensor: null
pressure_GPa: null
xred      :
- [  3.3000E-01,   6.7000E-01,   2.5000E-01, Si]
- [  6.7000E-01,   3.3000E-01,   2.5000E-01,  C]
- [  6.7000E-01,   3.3000E-01,   7.5000E-01, Si]
- [  3.3000E-01,   6.7000E-01,   7.5000E-01,  C]
cartesian_forces: null
force_length_stats: {min: null, max: null, mean: null, }
...

 Integrated electronic density in atomic spheres:
 ------------------------------------------------
 Atom  Sphere_radius  Integrated_density
    1        2.00000          3.63172916
    2        2.00000          5.08825956
    3        2.00000          3.63172916
    4        2.00000          5.08825956
================================================================================

 ----iterations are completed or convergence reached----

 Mean square residual over all n,k,spin=   58.568E-14; max=  98.781E-14
 reduced coordinates (array xred) for    4 atoms
       0.330000000000      0.670000000000      0.250000000000
       0.670000000000      0.330000000000      0.250000000000
       0.670000000000      0.330000000000      0.750000000000
       0.330000000000      0.670000000000      0.750000000000

 cartesian coordinates (angstrom) at end:
    1     -0.47678866493959     2.43421515951400     3.96882906442500
    2      0.47678866493959     2.43421515951400     3.96882906442500
    3      0.47678866493959     2.43421515951400    11.90648719327500
    4     -0.47678866493959     2.43421515951400    11.90648719327500
 length scales=  1.000000000000  1.000000000000  1.000000000000 bohr
              =  0.529177208590  0.529177208590  0.529177208590 angstroms
 prteigrs : about to open file runo_DS2_EIG
 Eigenvalues (   eV  ) for nkpt=  38  k points:
 kpt#   1, nband=  8, wtk=  1.00000, kpt=  0.5000  0.0000  0.0000 (reduced coord)
 -10.09878  -10.09876   -7.74157   -7.74155   -3.56223   -3.56185   -2.22748   -2.22748
 kpt#   2, nband=  8, wtk=  1.00000, kpt=  0.4500  0.0000  0.0000 (reduced coord)
 -10.39965  -10.39963   -7.37511   -7.37509   -3.65378   -3.65323   -2.19201   -2.19199
 kpt#   3, nband=  8, wtk=  1.00000, kpt=  0.4000  0.0000  0.0000 (reduced coord)
 -11.01194  -11.01191   -6.56976   -6.56974   -3.90145   -3.90051   -2.08694   -2.08691
 kpt#   4, nband=  8, wtk=  1.00000, kpt=  0.3500  0.0000  0.0000 (reduced coord)
 -11.66627  -11.66623   -5.60652   -5.60651   -4.24506   -4.24364   -1.91623   -1.91617
 kpt#   5, nband=  8, wtk=  1.00000, kpt=  0.3000  0.0000  0.0000 (reduced coord)
 -12.27660  -12.27656   -4.62457   -4.62264   -4.59286   -4.59283   -1.68579   -1.68567
 kpt#   6, nband=  8, wtk=  1.00000, kpt=  0.2500  0.0000  0.0000 (reduced coord)
 -12.81299  -12.81294   -4.99491   -4.99250   -3.59366   -3.59360   -1.40156   -1.40133
 kpt#   7, nband=  8, wtk=  1.00000, kpt=  0.2000  0.0000  0.0000 (reduced coord)
 -13.26203  -13.26198   -5.32597   -5.32314   -2.67763   -2.67754   -1.06461   -1.06416
 kpt#   8, nband=  8, wtk=  1.00000, kpt=  0.1500  0.0000  0.0000 (reduced coord)
 -13.61652  -13.61646   -5.59844   -5.59526   -1.93207   -1.93198   -0.66789   -0.66705
 kpt#   9, nband=  8, wtk=  1.00000, kpt=  0.1000  0.0000  0.0000 (reduced coord)
 -13.87221  -13.87215   -5.80018   -5.79675   -1.42874   -1.42871   -0.23328   -0.23208
 kpt#  10, nband=  8, wtk=  1.00000, kpt=  0.0500  0.0000  0.0000 (reduced coord)
 -14.02653  -14.02648   -5.92383   -5.92025   -1.15652   -1.15652    0.12417    0.12516
 kpt#  11, nband=  8, wtk=  1.00000, kpt=  0.0000  0.0000  0.0000 (reduced coord)
 -14.07812  -14.07806   -5.96546   -5.96183   -1.07107   -1.07107    0.26328    0.26385
 kpt#  12, nband=  8, wtk=  1.00000, kpt=  0.0000  0.0500  0.0500 (reduced coord)
 -14.02653  -14.02648   -5.92381   -5.92027   -1.15652   -1.15652    0.12418    0.12515
 kpt#  13, nband=  8, wtk=  1.00000, kpt=  0.0000  0.1000  0.1000 (reduced coord)
 -13.87220  -13.87215   -5.80009   -5.79683   -1.42874   -1.42871   -0.23325   -0.23211
 kpt#  14, nband=  8, wtk=  1.00000, kpt=  0.0000  0.1500  0.1500 (reduced coord)
 -13.61652  -13.61647   -5.59827   -5.59544   -1.93206   -1.93199   -0.66784   -0.66710
 kpt#  15, nband=  8, wtk=  1.00000, kpt=  0.0000  0.2000  0.2000 (reduced coord)
 -13.26203  -13.26198   -5.32570   -5.32341   -2.67762   -2.67755   -1.06457   -1.06421
 kpt#  16, nband=  8, wtk=  1.00000, kpt=  0.0000  0.2500  0.2500 (reduced coord)
 -12.81299  -12.81295   -4.99455   -4.99285   -3.59365   -3.59361   -1.40153   -1.40137
 kpt#  17, nband=  8, wtk=  1.00000, kpt=  0.0000  0.3000  0.3000 (reduced coord)
 -12.27659  -12.27656   -4.62417   -4.62304   -4.59285   -4.59283   -1.68576   -1.68569
 kpt#  18, nband=  8, wtk=  1.00000, kpt=  0.0000  0.3500  0.3500 (reduced coord)
 -11.66626  -11.66624   -5.60652   -5.60651   -4.24468   -4.24403   -1.91621   -1.91618
 kpt#  19, nband=  8, wtk=  1.00000, kpt=  0.0000  0.4000  0.4000 (reduced coord)
 -11.01193  -11.01192   -6.56975   -6.56975   -3.90113   -3.90084   -2.08693   -2.08692
 kpt#  20, nband=  8, wtk=  1.00000, kpt=  0.0000  0.4500  0.4500 (reduced coord)
 -10.39964  -10.39964   -7.37510   -7.37510   -3.65355   -3.65346   -2.19200   -2.19200
 kpt#  21, nband=  8, wtk=  1.00000, kpt=  0.0000  0.5000  0.5000 (reduced coord)
 -10.09877  -10.09877   -7.74156   -7.74156   -3.56204   -3.56204   -2.22748   -2.22748
 kpt#  22, nband=  8, wtk=  1.00000, kpt=  0.0588  0.5294  0.5294 (reduced coord)
 -10.06410  -10.06410   -7.68676   -7.68676   -3.54337   -3.54334   -2.49610   -2.49610
 kpt#  23, nband=  8, wtk=  1.00000, kpt=  0.1176  0.5588  0.5588 (reduced coord)
  -9.96290   -9.96289   -7.52338   -7.52338   -3.49098   -3.49092   -3.18355   -3.18354
 kpt#  24, nband=  8, wtk=  1.00000, kpt=  0.1765  0.5882  0.5882 (reduced coord)
  -9.80527   -9.80526   -7.25503   -7.25502   -4.07648   -4.07648   -3.41617   -3.41608
 kpt#  25, nband=  8, wtk=  1.00000, kpt=  0.2353  0.6176  0.6176 (reduced coord)
  -9.61575   -9.61575   -6.89189   -6.89188   -5.00214   -5.00213   -3.33846   -3.33837
 kpt#  26, nband=  8, wtk=  1.00000, kpt=  0.2941  0.6471  0.6471 (reduced coord)
  -9.45307   -9.45306   -6.49450   -6.49449   -5.76876   -5.76875   -3.28564   -3.28554
 kpt#  27, nband=  8, wtk=  1.00000, kpt=  0.3529  0.6765  0.6765 (reduced coord)
  -9.44634   -9.44633   -6.57009   -6.57007   -5.70592   -5.70591   -3.29085   -3.29073
 kpt#  28, nband=  8, wtk=  1.00000, kpt=  0.4118  0.7059  0.7059 (reduced coord)
  -9.74835   -9.74834   -6.66855   -6.66854   -5.09879   -5.09878   -3.38441   -3.38421
 kpt#  29, nband=  8, wtk=  1.00000, kpt=  0.4706  0.7353  0.7353 (reduced coord)
 -10.31739  -10.31737   -6.39643   -6.39642   -4.38526   -4.38525   -3.58117   -3.58079
 kpt#  30, nband=  8, wtk=  1.00000, kpt=  0.5294  0.7647  0.7647 (reduced coord)
 -10.98729  -10.98726   -5.88691   -5.88690   -3.87182   -3.87114   -3.61404   -3.61403
 kpt#  31, nband=  8, wtk=  1.00000, kpt=  0.5882  0.7941  0.7941 (reduced coord)
 -11.65305  -11.65302   -5.24267   -5.24266   -4.22650   -4.22539   -2.81717   -2.81714
 kpt#  32, nband=  8, wtk=  1.00000, kpt=  0.6471  0.8235  0.8235 (reduced coord)
 -12.26673  -12.26669   -4.60717   -4.60557   -4.51900   -4.51899   -2.03342   -2.03333
 kpt#  33, nband=  8, wtk=  1.00000, kpt=  0.7059  0.8529  0.8529 (reduced coord)
 -12.80536  -12.80532   -4.97851   -4.97639   -3.75466   -3.75465   -1.31056   -1.31035
 kpt#  34, nband=  8, wtk=  1.00000, kpt=  0.7647  0.8824  0.8824 (reduced coord)
 -13.25662  -13.25657   -5.31267   -5.31006   -2.98824   -2.98822   -0.69908   -0.69867
 kpt#  35, nband=  8, wtk=  1.00000, kpt=  0.8235  0.9118  0.9118 (reduced coord)
 -13.61323  -13.61318   -5.58964   -5.58660   -2.26711   -2.26709   -0.23738   -0.23672
 kpt#  36, nband=  8, wtk=  1.00000, kpt=  0.8824  0.9412  0.9412 (reduced coord)
 -13.87066  -13.87060   -5.79583   -5.79247   -1.65358   -1.65356    0.06278    0.06357
 kpt#  37, nband=  8, wtk=  1.00000, kpt=  0.9412  0.9706  0.9706 (reduced coord)
 -14.02614  -14.02608   -5.92268   -5.91912   -1.22697   -1.22696    0.21826    0.21895
 kpt#  38, nband=  8, wtk=  1.00000, kpt=  1.0000  1.0000  1.0000 (reduced coord)
 -14.07812  -14.07806   -5.96546   -5.96183   -1.07107   -1.07107    0.26328    0.26385

== END DATASET(S) ==============================================================
================================================================================
  
 -outvars: echo values of variables after computation  --------
            acell      1.0000000000E+00  1.0000000000E+00  1.0000000000E+00 Bohr
              amu      2.80855000E+01  1.20110000E+01
           diemac      1.20000000E+01
             ecut      5.00000000E+01 Hartree
           enunit1          0
           enunit2          1
           etotal1    -1.7819002664E+01
            fcart1    -2.9945720411E+00  2.3941042110E-17  5.2590727015E-32
                       2.9945722375E+00 -6.2557496711E-17 -5.2590727015E-32
                       2.9945720411E+00  2.4329524178E-17 -5.2590727015E-32
                      -2.9945722375E+00  1.4286930423E-17  5.2590727015E-32
-          fftalg         112
           getden1          0
           getden2         -1
             iscf1          7
             iscf2         -2
           istwfk2       3    0    0    0    0    0    0    0    0    0
                         2    0    0    0    0    0    0    0    0    0
                         8    0    0    0    0    0    0    0    0    0
                         0    0    0    0    0    0    0    0
              ixc          11
           jdtset        1    2
              kpt1    -1.25000000E-01  0.00000000E+00  0.00000000E+00
                      -1.25000000E-01  0.00000000E+00  2.50000000E-01
                      -2.50000000E-01  0.00000000E+00  1.25000000E-01
                      -1.25000000E-01  1.25000000E-01  1.25000000E-01
                      -3.75000000E-01  0.00000000E+00  0.00000000E+00
                      -2.50000000E-01  1.25000000E-01  0.00000000E+00
                      -1.25000000E-01  0.00000000E+00  5.00000000E-01
                      -2.50000000E-01  0.00000000E+00  3.75000000E-01
                      -1.25000000E-01  1.25000000E-01  3.75000000E-01
                      -3.75000000E-01  0.00000000E+00  2.50000000E-01
                      -2.50000000E-01  1.25000000E-01  2.50000000E-01
                       5.00000000E-01  0.00000000E+00  1.25000000E-01
                      -3.75000000E-01  1.25000000E-01  1.25000000E-01
                      -2.50000000E-01  2.50000000E-01  1.25000000E-01
                       5.00000000E-01  1.25000000E-01  0.00000000E+00
                      -3.75000000E-01  2.50000000E-01  0.00000000E+00
                      -3.75000000E-01  0.00000000E+00  5.00000000E-01
                      -2.50000000E-01  1.25000000E-01  5.00000000E-01
                       5.00000000E-01  0.00000000E+00  3.75000000E-01
                      -3.75000000E-01  1.25000000E-01  3.75000000E-01
                      -2.50000000E-01  2.50000000E-01  3.75000000E-01
                       5.00000000E-01  1.25000000E-01  2.50000000E-01
                      -3.75000000E-01  2.50000000E-01  2.50000000E-01
                       3.75000000E-01  1.25000000E-01  1.25000000E-01
                       5.00000000E-01  2.50000000E-01  1.25000000E-01
                      -3.75000000E-01  3.75000000E-01  1.25000000E-01
                       2.50000000E-01  1.25000000E-01  0.00000000E+00
                       3.75000000E-01  2.50000000E-01  0.00000000E+00
                       5.00000000E-01  3.75000000E-01  0.00000000E+00
                       5.00000000E-01  1.25000000E-01  5.00000000E-01
                      -3.75000000E-01  2.50000000E-01  5.00000000E-01
                       3.75000000E-01  1.25000000E-01  3.75000000E-01
                       5.00000000E-01  2.50000000E-01  3.75000000E-01
                      -3.75000000E-01  3.75000000E-01  3.75000000E-01
                       2.50000000E-01  1.25000000E-01  2.50000000E-01
                       3.75000000E-01  2.50000000E-01  2.50000000E-01
                       5.00000000E-01  3.75000000E-01  2.50000000E-01
                       0.00000000E+00  0.00000000E+00  1.25000000E-01
                       1.25000000E-01  1.25000000E-01  1.25000000E-01
                       2.50000000E-01  2.50000000E-01  1.25000000E-01
                       3.75000000E-01  3.75000000E-01  1.25000000E-01
                       5.00000000E-01  5.00000000E-01  1.25000000E-01
                       2.50000000E-01  1.25000000E-01  5.00000000E-01
                       3.75000000E-01  2.50000000E-01  5.00000000E-01
                       5.00000000E-01  3.75000000E-01  5.00000000E-01
                       0.00000000E+00  0.00000000E+00  3.75000000E-01
                       1.25000000E-01  1.25000000E-01  3.75000000E-01
                       2.50000000E-01  2.50000000E-01  3.75000000E-01
                       3.75000000E-01  3.75000000E-01  3.75000000E-01
                       5.00000000E-01  5.00000000E-01  3.75000000E-01
              kpt2     5.00000000E-01  0.00000000E+00  0.00000000E+00
                       4.50000000E-01  0.00000000E+00  0.00000000E+00
                       4.00000000E-01  0.00000000E+00  0.00000000E+00
                       3.50000000E-01  0.00000000E+00  0.00000000E+00
                       3.00000000E-01  0.00000000E+00  0.00000000E+00
                       2.50000000E-01  0.00000000E+00  0.00000000E+00
                       2.00000000E-01  0.00000000E+00  0.00000000E+00
                       1.50000000E-01  0.00000000E+00  0.00000000E+00
                       1.00000000E-01  0.00000000E+00  0.00000000E+00
                       5.00000000E-02  0.00000000E+00  0.00000000E+00
                       0.00000000E+00  0.00000000E+00  0.00000000E+00
                       0.00000000E+00  5.00000000E-02  5.00000000E-02
                       0.00000000E+00  1.00000000E-01  1.00000000E-01
                       0.00000000E+00  1.50000000E-01  1.50000000E-01
                       0.00000000E+00  2.00000000E-01  2.00000000E-01
                       0.00000000E+00  2.50000000E-01  2.50000000E-01
                       0.00000000E+00  3.00000000E-01  3.00000000E-01
                       0.00000000E+00  3.50000000E-01  3.50000000E-01
                       0.00000000E+00  4.00000000E-01  4.00000000E-01
                       0.00000000E+00  4.50000000E-01  4.50000000E-01
                       0.00000000E+00  5.00000000E-01  5.00000000E-01
                       5.88235294E-02  5.29411765E-01  5.29411765E-01
                       1.17647059E-01  5.58823529E-01  5.58823529E-01
                       1.76470588E-01  5.88235294E-01  5.88235294E-01
                       2.35294118E-01  6.17647059E-01  6.17647059E-01
                       2.94117647E-01  6.47058824E-01  6.47058824E-01
                       3.52941176E-01  6.76470588E-01  6.76470588E-01
                       4.11764706E-01  7.05882353E-01  7.05882353E-01
                       4.70588235E-01  7.35294118E-01  7.35294118E-01
                       5.29411765E-01  7.64705882E-01  7.64705882E-01
                       5.88235294E-01  7.94117647E-01  7.94117647E-01
                       6.47058824E-01  8.23529412E-01  8.23529412E-01
                       7.05882353E-01  8.52941176E-01  8.52941176E-01
                       7.64705882E-01  8.82352941E-01  8.82352941E-01
                       8.23529412E-01  9.11764706E-01  9.11764706E-01
                       8.82352941E-01  9.41176471E-01  9.41176471E-01
                       9.41176471E-01  9.70588235E-01  9.70588235E-01
                       1.00000000E+00  1.00000000E+00  1.00000000E+00
           kptopt1          1
           kptopt2         -3
         kptrlatt        0    8    0     -8    8    0     -4    4    4
          kptrlen1     4.24000000E+01
          kptrlen2     3.00000000E+01
P           mkmem1         50
P           mkmem2         38
            natom           4
            nband1          9
            nband2          8
           nbdbuf1          0
           nbdbuf2          2
           ndtset           2
           ndivsm1          0
           ndivsm2         10
            ngfft          36      36     192
             nkpt1         50
             nkpt2         38
            nstep          50
             nsym           8
           ntypat           2
              occ      2.000000  2.000000  2.000000  2.000000  2.000000  2.000000
                       2.000000  2.000000  0.000000
            rprim      2.6500000000E+00  4.6000000000E+00  0.0000000000E+00
                      -2.6500000000E+00  4.6000000000E+00  0.0000000000E+00
                       0.0000000000E+00  0.0000000000E+00  3.0000000000E+01
           shiftk1     0.00000000E+00  0.00000000E+00  5.00000000E-01
           shiftk2     5.00000000E-01  5.00000000E-01  5.00000000E-01
          spgroup          63
           strten1    -1.4784823535E-02 -3.5130833557E-04  1.1315358692E-07
                       0.0000000000E+00  0.0000000000E+00  0.0000000000E+00
           symrel      1  0  0   0  1  0   0  0  1      -1  0  0   0 -1  0   0  0 -1
                       0 -1  0  -1  0  0   0  0 -1       0  1  0   1  0  0   0  0  1
                      -1  0  0   0 -1  0   0  0  1       1  0  0   0  1  0   0  0 -1
                       0  1  0   1  0  0   0  0 -1       0 -1  0  -1  0  0   0  0  1
            tnons      0.0000000  0.0000000  0.0000000    -0.0000000 -0.0000000  0.0000000
                      -0.0000000 -0.0000000  0.5000000     0.0000000  0.0000000  0.5000000
                      -0.0000000 -0.0000000  0.5000000     0.0000000  0.0000000  0.5000000
                       0.0000000  0.0000000  0.0000000    -0.0000000 -0.0000000  0.0000000
           toldfe1     1.00000000E-08 Hartree
           toldfe2     0.00000000E+00 Hartree
           tolwfr1     0.00000000E+00
           tolwfr2     1.00000000E-12
            typat      1  2  1  2
              wtk1       0.01563    0.03125    0.03125    0.01563    0.01563    0.01563
                         0.01563    0.03125    0.01563    0.03125    0.03125    0.01563
                         0.03125    0.01563    0.01563    0.01563    0.01563    0.01563
                         0.01563    0.03125    0.01563    0.03125    0.03125    0.03125
                         0.03125    0.01563    0.01563    0.01563    0.01563    0.01563
                         0.01563    0.03125    0.03125    0.01563    0.03125    0.03125
                         0.03125    0.00781    0.01563    0.01563    0.01563    0.00781
                         0.01563    0.01563    0.01563    0.00781    0.01563    0.01563
                         0.01563    0.00781
              wtk2       1.00000    1.00000    1.00000    1.00000    1.00000    1.00000
                         1.00000    1.00000    1.00000    1.00000    1.00000    1.00000
                         1.00000    1.00000    1.00000    1.00000    1.00000    1.00000
                         1.00000    1.00000    1.00000    1.00000    1.00000    1.00000
                         1.00000    1.00000    1.00000    1.00000    1.00000    1.00000
                         1.00000    1.00000    1.00000    1.00000    1.00000    1.00000
                         1.00000    1.00000
           xangst     -4.7678866494E-01  2.4342151595E+00  3.9688290644E+00
                       4.7678866494E-01  2.4342151595E+00  3.9688290644E+00
                       4.7678866494E-01  2.4342151595E+00  1.1906487193E+01
                      -4.7678866494E-01  2.4342151595E+00  1.1906487193E+01
            xcart     -9.0100000000E-01  4.6000000000E+00  7.5000000000E+00
                       9.0100000000E-01  4.6000000000E+00  7.5000000000E+00
                       9.0100000000E-01  4.6000000000E+00  2.2500000000E+01
                      -9.0100000000E-01  4.6000000000E+00  2.2500000000E+01
             xred      3.3000000000E-01  6.7000000000E-01  2.5000000000E-01
                       6.7000000000E-01  3.3000000000E-01  2.5000000000E-01
                       6.7000000000E-01  3.3000000000E-01  7.5000000000E-01
                       3.3000000000E-01  6.7000000000E-01  7.5000000000E-01
            znucl       14.00000    6.00000

================================================================================


- Timing analysis has been suppressed with timopt=0



================================================================================

 Suggested references for the acknowledgment of ABINIT usage.

 The users of ABINIT have little formal obligations with respect to the ABINIT group
 (those specified in the GNU General Public License, http://www.gnu.org/copyleft/gpl.txt).
 However, it is common practice in the scientific literature,
 to acknowledge the efforts of people that have made the research possible.
 In this spirit, please find below suggested citations of work written by ABINIT developers,
 corresponding to implementations inside of ABINIT that you have used in the present run.
 Note also that it will be of great value to readers of publications presenting these results,
 to read papers enabling them to understand the theoretical formalism and details
 of the ABINIT implementation.
 For information on why they are suggested, see also https://docs.abinit.org/theory/acknowledgments.
-
- [1] The Abinit project: Impact, environment and recent developments.
- Computer Phys. Comm. 248, 107042 (2020).
- X.Gonze, B. Amadon, G. Antonius, F.Arnardi, L.Baguet, J.-M.Beuken,
- J.Bieder, F.Bottin, J.Bouchet, E.Bousquet, N.Brouwer, F.Bruneval,
- G.Brunin, T.Cavignac, J.-B. Charraud, Wei Chen, M.Cote, S.Cottenier,
- J.Denier, G.Geneste, Ph.Ghosez, M.Giantomassi, Y.Gillet, O.Gingras,
- D.R.Hamann, G.Hautier, Xu He, N.Helbig, N.Holzwarth, Y.Jia, F.Jollet,
- W.Lafargue-Dit-Hauret, K.Lejaeghere, M.A.L.Marques, A.Martin, C.Martins,
- H.P.C. Miranda, F.Naccarato, K. Persson, G.Petretto, V.Planes, Y.Pouillon,
- S.Prokhorenko, F.Ricci, G.-M.Rignanese, A.H.Romero, M.M.Schmitt, M.Torrent,
- M.J.van Setten, B.Van Troeye, M.J.Verstraete, G.Zerah and J.W.Zwanzig
- Comment: the fifth generic paper describing the ABINIT project.
- Note that a version of this paper, that is not formatted for Computer Phys. Comm. 
- is available at https://www.abinit.org/sites/default/files/ABINIT20.pdf .
- The licence allows the authors to put it on the Web.
- DOI and bibtex: see https://docs.abinit.org/theory/bibliography/#gonze2020
-
- [2] Optimized norm-conserving Vanderbilt pseudopotentials.
- D.R. Hamann, Phys. Rev. B 88, 085117 (2013).
- Comment: Some pseudopotential generated using the ONCVPSP code were used.
- DOI and bibtex: see https://docs.abinit.org/theory/bibliography/#hamann2013
-
- [3] ABINIT: Overview, and focus on selected capabilities
- J. Chem. Phys. 152, 124102 (2020).
- A. Romero, D.C. Allan, B. Amadon, G. Antonius, T. Applencourt, L.Baguet,
- J.Bieder, F.Bottin, J.Bouchet, E.Bousquet, F.Bruneval,
- G.Brunin, D.Caliste, M.Cote,
- J.Denier, C. Dreyer, Ph.Ghosez, M.Giantomassi, Y.Gillet, O.Gingras,
- D.R.Hamann, G.Hautier, F.Jollet, G. Jomard,
- A.Martin, 
- H.P.C. Miranda, F.Naccarato, G.Petretto, N.A. Pike, V.Planes,
- S.Prokhorenko, T. Rangel, F.Ricci, G.-M.Rignanese, M.Royo, M.Stengel, M.Torrent,
- M.J.van Setten, B.Van Troeye, M.J.Verstraete, J.Wiktor, J.W.Zwanziger, and X.Gonze.
- Comment: a global overview of ABINIT, with focus on selected capabilities .
- Note that a version of this paper, that is not formatted for J. Chem. Phys 
- is available at https://www.abinit.org/sites/default/files/ABINIT20_JPC.pdf .
- The licence allows the authors to put it on the Web.
- DOI and bibtex: see https://docs.abinit.org/theory/bibliography/#romero2020
-
- [4] Recent developments in the ABINIT software package.
- Computer Phys. Comm. 205, 106 (2016).
- X.Gonze, F.Jollet, F.Abreu Araujo, D.Adams, B.Amadon, T.Applencourt,
- C.Audouze, J.-M.Beuken, J.Bieder, A.Bokhanchuk, E.Bousquet, F.Bruneval
- D.Caliste, M.Cote, F.Dahm, F.Da Pieve, M.Delaveau, M.Di Gennaro,
- B.Dorado, C.Espejo, G.Geneste, L.Genovese, A.Gerossier, M.Giantomassi,
- Y.Gillet, D.R.Hamann, L.He, G.Jomard, J.Laflamme Janssen, S.Le Roux,
- A.Levitt, A.Lherbier, F.Liu, I.Lukacevic, A.Martin, C.Martins,
- M.J.T.Oliveira, S.Ponce, Y.Pouillon, T.Rangel, G.-M.Rignanese,
- A.H.Romero, B.Rousseau, O.Rubel, A.A.Shukri, M.Stankovski, M.Torrent,
- M.J.Van Setten, B.Van Troeye, M.J.Verstraete, D.Waroquier, J.Wiktor,
- B.Xu, A.Zhou, J.W.Zwanziger.
- Comment: the fourth generic paper describing the ABINIT project.
- Note that a version of this paper, that is not formatted for Computer Phys. Comm. 
- is available at https://www.abinit.org/sites/default/files/ABINIT16.pdf .
- The licence allows the authors to put it on the Web.
- DOI and bibtex: see https://docs.abinit.org/theory/bibliography/#gonze2016
-
- And optionally:
-
- [5] ABINIT: First-principles approach of materials and nanosystem properties.
- Computer Phys. Comm. 180, 2582-2615 (2009).
- X. Gonze, B. Amadon, P.-M. Anglade, J.-M. Beuken, F. Bottin, P. Boulanger, F. Bruneval,
- D. Caliste, R. Caracas, M. Cote, T. Deutsch, L. Genovese, Ph. Ghosez, M. Giantomassi
- S. Goedecker, D.R. Hamann, P. Hermet, F. Jollet, G. Jomard, S. Leroux, M. Mancini, S. Mazevet,
- M.J.T. Oliveira, G. Onida, Y. Pouillon, T. Rangel, G.-M. Rignanese, D. Sangalli, R. Shaltaf,
- M. Torrent, M.J. Verstraete, G. Zerah, J.W. Zwanziger
- Comment: the third generic paper describing the ABINIT project.
- Note that a version of this paper, that is not formatted for Computer Phys. Comm. 
- is available at https://www.abinit.org/sites/default/files/ABINIT_CPC_v10.pdf .
- The licence allows the authors to put it on the Web.
- DOI and bibtex: see https://docs.abinit.org/theory/bibliography/#gonze2009
-
- Proc.   0 individual time (sec): cpu=        401.4  wall=        401.5

================================================================================

 Calculation completed.
.Delivered   2 WARNINGs and   5 COMMENTs to log file.
+Overall time at end (sec) : cpu=        401.4  wall=        401.5
