
.Version 10.0.5 of ABINIT, released Apr 2024.
.(MPI version, prepared for a x86_64_linux_gnu13.2 computer) 

.Copyright (C) 1998-2024 ABINIT group . 
 ABINIT comes with ABSOLUTELY NO WARRANTY.
 It is free software, and you are welcome to redistribute it
 under certain conditions (GNU General Public License,
 see ~abinit/COPYING or http://www.gnu.org/copyleft/gpl.txt).

 ABINIT is a project of the Universite Catholique de Louvain,
 Corning Inc. and other collaborators, see ~abinit/doc/developers/contributors.txt .
 Please read https://docs.abinit.org/theory/acknowledgments for suggested
 acknowledgments of the ABINIT effort.
 For more information, see https://www.abinit.org .

.Starting date : Mon 10 Jun 2024.
- ( at 02h41 )
  
- input  file    -> sibs.abi
- output file    -> sibs.abo
- root for input  files -> sibsi
- root for output files -> sibso

 DATASET    1 : space group Cm m m (# 65); Bravais oC (1-face-center ortho.)
================================================================================
 Values of the parameters that define the memory need for DATASET  1.
     intxc =       0    ionmov =       0      iscf =       7    lmnmax =       6
     lnmax =       6     mgfft =     108  mpssoang =       3    mqgrid =    5231
     natom =       2  nloc_mem =       1    nspden =       1   nspinor =       1
    nsppol =       1      nsym =       8    n1xccc =    2501    ntypat =       1
    occopt =       1   xclevel =       2
-    mband =           5        mffmem =           1         mkmem =          50
       mpw =        3188          nfft =       62208          nkpt =          50
================================================================================
P This job should need less than                      35.016 Mbytes of memory.
  Rough estimation (10% accuracy) of disk space for files :
_ WF disk file :     12.163 Mbytes ; DEN or POT disk file :      0.477 Mbytes.
================================================================================

 DATASET    2 : space group Cm m m (# 65); Bravais oC (1-face-center ortho.)
================================================================================
 Values of the parameters that define the memory need for DATASET  2.
     intxc =       0    ionmov =       0      iscf =      -2    lmnmax =       6
     lnmax =       6     mgfft =     108  mpssoang =       3    mqgrid =    5231
     natom =       2  nloc_mem =       1    nspden =       1   nspinor =       1
    nsppol =       1      nsym =       8    n1xccc =    2501    ntypat =       1
    occopt =       1   xclevel =       2
-    mband =           8        mffmem =           1         mkmem =          38
       mpw =        3190          nfft =       62208          nkpt =          38
================================================================================
P This job should need less than                      29.441 Mbytes of memory.
  Rough estimation (10% accuracy) of disk space for files :
_ WF disk file :     14.799 Mbytes ; DEN or POT disk file :      0.477 Mbytes.
================================================================================

--------------------------------------------------------------------------------
------------- Echo of variables that govern the present computation ------------
--------------------------------------------------------------------------------
-
- outvars: echo of selected default values                                      
-   iomode0 =  0 , fftalg0 =112 , wfoptalg0 =  0
-
- outvars: echo of global parameters not present in the input file              
-  max_nthreads =    0
-
 -outvars: echo values of preprocessed input variables --------
            acell      1.0000000000E+00  1.0000000000E+00  1.0000000000E+00 Bohr
              amu      2.80855000E+01
           diemac      1.00000000E+01
             ecut      1.50000000E+01 Hartree
           enunit1          0
           enunit2          1
-          fftalg         112
           getden1          0
           getden2         -1
             iscf1          7
             iscf2         -2
           istwfk2       3    0    0    0    0    0    0    0    0    0
                         2    0    0    0    0    0    0    0    0    0
                         8    0    0    0    0    0    0    0    0    0
                         0    0    0    0    0    0    0    0
              ixc          11
           jdtset        1    2
              kpt1    -1.25000000E-01  0.00000000E+00  0.00000000E+00
                      -1.25000000E-01  0.00000000E+00  2.50000000E-01
                      -2.50000000E-01  0.00000000E+00  1.25000000E-01
                      -1.25000000E-01  1.25000000E-01  1.25000000E-01
                      -3.75000000E-01  0.00000000E+00  0.00000000E+00
                      -2.50000000E-01  1.25000000E-01  0.00000000E+00
                      -1.25000000E-01  0.00000000E+00  5.00000000E-01
                      -2.50000000E-01  0.00000000E+00  3.75000000E-01
                      -1.25000000E-01  1.25000000E-01  3.75000000E-01
                      -3.75000000E-01  0.00000000E+00  2.50000000E-01
                      -2.50000000E-01  1.25000000E-01  2.50000000E-01
                       5.00000000E-01  0.00000000E+00  1.25000000E-01
                      -3.75000000E-01  1.25000000E-01  1.25000000E-01
                      -2.50000000E-01  2.50000000E-01  1.25000000E-01
                       5.00000000E-01  1.25000000E-01  0.00000000E+00
                      -3.75000000E-01  2.50000000E-01  0.00000000E+00
                      -3.75000000E-01  0.00000000E+00  5.00000000E-01
                      -2.50000000E-01  1.25000000E-01  5.00000000E-01
                       5.00000000E-01  0.00000000E+00  3.75000000E-01
                      -3.75000000E-01  1.25000000E-01  3.75000000E-01
                      -2.50000000E-01  2.50000000E-01  3.75000000E-01
                       5.00000000E-01  1.25000000E-01  2.50000000E-01
                      -3.75000000E-01  2.50000000E-01  2.50000000E-01
                       3.75000000E-01  1.25000000E-01  1.25000000E-01
                       5.00000000E-01  2.50000000E-01  1.25000000E-01
                      -3.75000000E-01  3.75000000E-01  1.25000000E-01
                       2.50000000E-01  1.25000000E-01  0.00000000E+00
                       3.75000000E-01  2.50000000E-01  0.00000000E+00
                       5.00000000E-01  3.75000000E-01  0.00000000E+00
                       5.00000000E-01  1.25000000E-01  5.00000000E-01
                      -3.75000000E-01  2.50000000E-01  5.00000000E-01
                       3.75000000E-01  1.25000000E-01  3.75000000E-01
                       5.00000000E-01  2.50000000E-01  3.75000000E-01
                      -3.75000000E-01  3.75000000E-01  3.75000000E-01
                       2.50000000E-01  1.25000000E-01  2.50000000E-01
                       3.75000000E-01  2.50000000E-01  2.50000000E-01
                       5.00000000E-01  3.75000000E-01  2.50000000E-01
                       0.00000000E+00  0.00000000E+00  1.25000000E-01
                       1.25000000E-01  1.25000000E-01  1.25000000E-01
                       2.50000000E-01  2.50000000E-01  1.25000000E-01
                       3.75000000E-01  3.75000000E-01  1.25000000E-01
                       5.00000000E-01  5.00000000E-01  1.25000000E-01
                       2.50000000E-01  1.25000000E-01  5.00000000E-01
                       3.75000000E-01  2.50000000E-01  5.00000000E-01
                       5.00000000E-01  3.75000000E-01  5.00000000E-01
                       0.00000000E+00  0.00000000E+00  3.75000000E-01
                       1.25000000E-01  1.25000000E-01  3.75000000E-01
                       2.50000000E-01  2.50000000E-01  3.75000000E-01
                       3.75000000E-01  3.75000000E-01  3.75000000E-01
                       5.00000000E-01  5.00000000E-01  3.75000000E-01
              kpt2     5.00000000E-01  0.00000000E+00  0.00000000E+00
                       4.50000000E-01  0.00000000E+00  0.00000000E+00
                       4.00000000E-01  0.00000000E+00  0.00000000E+00
                       3.50000000E-01  0.00000000E+00  0.00000000E+00
                       3.00000000E-01  0.00000000E+00  0.00000000E+00
                       2.50000000E-01  0.00000000E+00  0.00000000E+00
                       2.00000000E-01  0.00000000E+00  0.00000000E+00
                       1.50000000E-01  0.00000000E+00  0.00000000E+00
                       1.00000000E-01  0.00000000E+00  0.00000000E+00
                       5.00000000E-02  0.00000000E+00  0.00000000E+00
                       0.00000000E+00  0.00000000E+00  0.00000000E+00
                       0.00000000E+00  5.00000000E-02  5.00000000E-02
                       0.00000000E+00  1.00000000E-01  1.00000000E-01
                       0.00000000E+00  1.50000000E-01  1.50000000E-01
                       0.00000000E+00  2.00000000E-01  2.00000000E-01
                       0.00000000E+00  2.50000000E-01  2.50000000E-01
                       0.00000000E+00  3.00000000E-01  3.00000000E-01
                       0.00000000E+00  3.50000000E-01  3.50000000E-01
                       0.00000000E+00  4.00000000E-01  4.00000000E-01
                       0.00000000E+00  4.50000000E-01  4.50000000E-01
                       0.00000000E+00  5.00000000E-01  5.00000000E-01
                       5.88235294E-02  5.29411765E-01  5.29411765E-01
                       1.17647059E-01  5.58823529E-01  5.58823529E-01
                       1.76470588E-01  5.88235294E-01  5.88235294E-01
                       2.35294118E-01  6.17647059E-01  6.17647059E-01
                       2.94117647E-01  6.47058824E-01  6.47058824E-01
                       3.52941176E-01  6.76470588E-01  6.76470588E-01
                       4.11764706E-01  7.05882353E-01  7.05882353E-01
                       4.70588235E-01  7.35294118E-01  7.35294118E-01
                       5.29411765E-01  7.64705882E-01  7.64705882E-01
                       5.88235294E-01  7.94117647E-01  7.94117647E-01
                       6.47058824E-01  8.23529412E-01  8.23529412E-01
                       7.05882353E-01  8.52941176E-01  8.52941176E-01
                       7.64705882E-01  8.82352941E-01  8.82352941E-01
                       8.23529412E-01  9.11764706E-01  9.11764706E-01
                       8.82352941E-01  9.41176471E-01  9.41176471E-01
                       9.41176471E-01  9.70588235E-01  9.70588235E-01
                       1.00000000E+00  1.00000000E+00  1.00000000E+00
           kptopt1          1
           kptopt2         -3
         kptrlatt        0    8    0     -8    8    0     -4    4    4
          kptrlen1     5.29600000E+01
          kptrlen2     3.00000000E+01
P           mkmem1         50
P           mkmem2         38
            natom           2
            nband1          5
            nband2          8
           nbdbuf1          0
           nbdbuf2          2
           ndtset           2
           ndivsm1          0
           ndivsm2         10
            ngfft          24      24     108
             nkpt1         50
             nkpt2         38
            nstep          20
             nsym           8
           ntypat           1
              occ      2.000000  2.000000  2.000000  2.000000  0.000000
            rprim      3.3100000000E+00  5.7400000000E+00  0.0000000000E+00
                      -3.3100000000E+00  5.7400000000E+00  0.0000000000E+00
                       0.0000000000E+00  0.0000000000E+00  3.0000000000E+01
           shiftk1     0.00000000E+00  0.00000000E+00  5.00000000E-01
           shiftk2     5.00000000E-01  5.00000000E-01  5.00000000E-01
          spgroup          65
           symrel      1  0  0   0  1  0   0  0  1      -1  0  0   0 -1  0   0  0 -1
                       0 -1  0  -1  0  0   0  0 -1       0  1  0   1  0  0   0  0  1
                      -1  0  0   0 -1  0   0  0  1       1  0  0   0  1  0   0  0 -1
                       0  1  0   1  0  0   0  0 -1       0 -1  0  -1  0  0   0  0  1
           toldfe1     1.00000000E-08 Hartree
           toldfe2     0.00000000E+00 Hartree
           tolwfr1     0.00000000E+00
           tolwfr2     1.00000000E-12
            typat      1  1
              wtk1       0.01563    0.03125    0.03125    0.01563    0.01563    0.01563
                         0.01563    0.03125    0.01563    0.03125    0.03125    0.01563
                         0.03125    0.01563    0.01563    0.01563    0.01563    0.01563
                         0.01563    0.03125    0.01563    0.03125    0.03125    0.03125
                         0.03125    0.01563    0.01563    0.01563    0.01563    0.01563
                         0.01563    0.03125    0.03125    0.01563    0.03125    0.03125
                         0.03125    0.00781    0.01563    0.01563    0.01563    0.00781
                         0.01563    0.01563    0.01563    0.00781    0.01563    0.01563
                         0.01563    0.00781
              wtk2       1.00000    1.00000    1.00000    1.00000    1.00000    1.00000
                         1.00000    1.00000    1.00000    1.00000    1.00000    1.00000
                         1.00000    1.00000    1.00000    1.00000    1.00000    1.00000
                         1.00000    1.00000    1.00000    1.00000    1.00000    1.00000
                         1.00000    1.00000    1.00000    1.00000    1.00000    1.00000
                         1.00000    1.00000    1.00000    1.00000    1.00000    1.00000
                         1.00000    1.00000
           xangst      1.0774836585E-17  2.0047349370E+00  0.0000000000E+00
                      -3.1043749462E-17  4.0702194176E+00  0.0000000000E+00
            xcart      2.0361490272E-17  3.7884000000E+00  0.0000000000E+00
                      -5.8664184621E-17  7.6916000000E+00  0.0000000000E+00
             xred      3.3000000000E-01  3.3000000000E-01  0.0000000000E+00
                       6.7000000000E-01  6.7000000000E-01  0.0000000000E+00
            znucl       14.00000

================================================================================

 chkinp: Checking input parameters for consistency, jdtset=   1.

 chkinp: Checking input parameters for consistency, jdtset=   2.

================================================================================
== DATASET  1 ==================================================================
-   mpi_nproc: 1, omp_nthreads: -1 (-1 if OMP is not activated)


--- !DatasetInfo
iteration_state: {dtset: 1, }
dimensions: {natom: 2, nkpt: 50, mband: 5, nsppol: 1, nspinor: 1, nspden: 1, mpw: 3188, }
cutoff_energies: {ecut:  15.0, pawecutdg:  -1.0, }
electrons: {nelect:   8.00000000E+00, charge:   0.00000000E+00, occopt:   1.00000000E+00, tsmear:   1.00000000E-02, }
meta: {optdriver: 0, ionmov: 0, optcell: 0, iscf: 7, paral_kgb: 0, }
...

 Exchange-correlation functional for the present dataset will be:
  GGA: Perdew-Burke-Ernzerhof functional - ixc=11
 Citation for XC functional:
  J.P.Perdew, K.Burke, M.Ernzerhof, PRL 77, 3865 (1996)

 Real(R)+Recip(G) space primitive vectors, cartesian coordinates (Bohr,Bohr^-1):
 R(1)=  3.3100000  5.7400000  0.0000000  G(1)=  0.1510574  0.0871080  0.0000000
 R(2)= -3.3100000  5.7400000  0.0000000  G(2)= -0.1510574  0.0871080  0.0000000
 R(3)=  0.0000000  0.0000000 30.0000000  G(3)=  0.0000000  0.0000000  0.0333333
 Unit cell volume ucvol=  1.1399640E+03 bohr^3
 Angles (23,13,12)=  9.00000000E+01  9.00000000E+01  5.99402325E+01 degrees

 getcut: wavevector=  0.0000  0.0000  0.0000  ngfft=  24  24 108
         ecut(hartree)=     15.000   => boxcut(ratio)=   2.06487

--- Pseudopotential description ------------------------------------------------
- pspini: atom type   1  psp file is /home/hrishi/abinit-10.0.5/Pseudopotentials/Si.psp8
- pspatm: opening atomic psp file    /home/hrishi/abinit-10.0.5/Pseudopotentials/Si.psp8
- Si    ONCVPSP-3.2.3.1  r_core=   1.60303   1.72197   1.91712
- 14.00000   4.00000    170510                znucl, zion, pspdat
    8   11    2    4       600   0.00000      pspcod,pspxc,lmax,lloc,mmax,r2well
    5.99000000000000    4.00000000000000    0.00000000000000   rchrg,fchrg,qchrg
     nproj     2     2     2
     extension_switch     1
  pspatm : epsatm=    9.34321699
         --- l  ekb(1:nproj) -->
             0    5.168965    0.829883
             1    2.571282    0.578307
             2   -2.427311   -0.488097
 pspatm: atomic psp has been read  and splines computed

   1.49491472E+02                                ecore*ucvol(ha*bohr**3)
--------------------------------------------------------------------------------

_setup2: Arith. and geom. avg. npw (full set) are    3163.305    3163.284

================================================================================

--- !BeginCycle
iteration_state: {dtset: 1, }
solver: {iscf: 7, nstep: 20, nline: 4, wfoptalg: 0, }
tolerances: {toldfe: 1.00E-08, }
...

     iter   Etot(hartree)      deltaE(h)  residm     vres2
 ETOT  1  -8.3423310676522    -8.342E+00 4.360E-02 2.011E+02
 ETOT  2  -8.3600338166706    -1.770E-02 2.217E-02 4.861E+01
 ETOT  3  -8.3607428391588    -7.090E-04 9.719E-04 2.580E+01
 ETOT  4  -8.3610447770056    -3.019E-04 9.175E-04 1.123E+01
 ETOT  5  -8.3610887800968    -4.400E-05 3.106E-04 7.090E+00
 ETOT  6  -8.3611022568096    -1.348E-05 2.530E-04 4.962E+00
 ETOT  7  -8.3611122871077    -1.003E-05 1.585E-04 2.659E+00
 ETOT  8  -8.3611154654837    -3.178E-06 2.273E-04 1.131E+00
 ETOT  9  -8.3611155422142    -7.673E-08 1.314E-04 9.081E-01
 ETOT 10  -8.3611155477139    -5.500E-09 3.218E-04 7.024E-01
 ETOT 11  -8.3611156001087    -5.239E-08 8.779E-05 5.704E-01
 ETOT 12  -8.3611155841529     1.596E-08 4.857E-04 2.624E-01
 ETOT 13  -8.3611156133305    -2.918E-08 5.205E-05 2.349E-01
 ETOT 14  -8.3611156255549    -1.222E-08 1.649E-04 2.660E-01
 ETOT 15  -8.3611154994866     1.261E-07 2.902E-05 3.652E-01
 ETOT 16  -8.3611155440936    -4.461E-08 2.592E-05 9.062E-01
 ETOT 17  -8.3611157024950    -1.584E-07 1.590E-05 1.346E-01
 ETOT 18  -8.3611157274010    -2.491E-08 2.244E-05 1.710E-01
 ETOT 19  -8.3611157242844     3.117E-09 8.192E-06 1.678E-01
 ETOT 20  -8.3611157269579    -2.674E-09 9.850E-06 1.319E-01

 At SCF step   20, etot is converged : 
  for the second time, diff in etot=  2.674E-09 < toldfe=  1.000E-08

 Cartesian components of stress tensor (hartree/bohr^3)
  sigma(1 1)= -5.17189631E-04  sigma(3 2)=  0.00000000E+00
  sigma(2 2)= -4.17680720E-04  sigma(3 1)=  0.00000000E+00
  sigma(3 3)=  4.09347223E-07  sigma(2 1)=  0.00000000E+00


--- !ResultsGS
iteration_state: {dtset: 1, }
comment   : Summary of ground state results
lattice_vectors:
- [  3.3100000,   5.7400000,   0.0000000, ]
- [ -3.3100000,   5.7400000,   0.0000000, ]
- [  0.0000000,   0.0000000,  30.0000000, ]
lattice_lengths: [   6.62599,    6.62599,   30.00000, ]
lattice_angles: [ 90.000,  90.000,  59.940, ] # degrees, (23, 13, 12)
lattice_volume:   1.1399640E+03
convergence: {deltae: -2.674E-09, res2:  1.319E-01, residm:  9.850E-06, diffor: null, }
etotal    :  -8.36111573E+00
entropy   :   0.00000000E+00
fermie    :  -1.04737205E-01
cartesian_stress_tensor: # hartree/bohr^3
- [ -5.17189631E-04,   0.00000000E+00,   0.00000000E+00, ]
- [  0.00000000E+00,  -4.17680720E-04,   0.00000000E+00, ]
- [  0.00000000E+00,   0.00000000E+00,   4.09347223E-07, ]
pressure_GPa:   9.1643E+00
xred      :
- [  3.3000E-01,   3.3000E-01,   0.0000E+00, Si]
- [  6.7000E-01,   6.7000E-01,   0.0000E+00, Si]
cartesian_forces: # hartree/bohr
- [  9.79315020E-19,   2.95271904E-02,  -2.10362908E-31, ]
- [ -9.79315020E-19,  -2.95271904E-02,   2.10362908E-31, ]
force_length_stats: {min:   2.95271904E-02, max:   2.95271904E-02, mean:   2.95271904E-02, }
...

 Integrated electronic density in atomic spheres:
 ------------------------------------------------
 Atom  Sphere_radius  Integrated_density
    1        2.00000          2.11385640
    2        2.00000          2.11385640
================================================================================

 ----iterations are completed or convergence reached----

 Mean square residual over all n,k,spin=   13.587E-08; max=  98.500E-07
 reduced coordinates (array xred) for    2 atoms
       0.330000000000      0.330000000000      0.000000000000
       0.670000000000      0.670000000000      0.000000000000
 rms dE/dt=  1.3838E-01; max dE/dt=  1.6949E-01; dE/dt below (all hartree)
    1      -0.169486072675     -0.169486072675      0.000000000000
    2       0.169486072675      0.169486072675      0.000000000000

 cartesian coordinates (angstrom) at end:
    1      0.00000000000000     2.00473493702236     0.00000000000000
    2     -0.00000000000000     4.07021941759084     0.00000000000000

 cartesian forces (hartree/bohr) at end:
    1      0.00000000000000     0.02952719036146    -0.00000000000000
    2     -0.00000000000000    -0.02952719036146     0.00000000000000
 frms,max,avg= 1.7047531E-02 2.9527190E-02   0.000E+00  0.000E+00  0.000E+00 h/b

 cartesian forces (eV/Angstrom) at end:
    1      0.00000000000000     1.51834904865580    -0.00000000000000
    2     -0.00000000000000    -1.51834904865580     0.00000000000000
 frms,max,avg= 8.7661923E-01 1.5183490E+00   0.000E+00  0.000E+00  0.000E+00 e/A
 length scales=  1.000000000000  1.000000000000  1.000000000000 bohr
              =  0.529177208590  0.529177208590  0.529177208590 angstroms
 prteigrs : about to open file sibso_DS1_EIG
 Fermi (or HOMO) energy (hartree) =  -0.10474   Average Vxc (hartree)=  -0.10215
 Eigenvalues (hartree) for nkpt=  50  k points:
 kpt#   1, nband=  5, wtk=  0.01563, kpt= -0.1250  0.0000  0.0000 (reduced coord)
  -0.54543   -0.22630   -0.18298   -0.14782    0.01476
 prteigrs : prtvol=0 or 1, do not print more k-points.


--- !EnergyTerms
iteration_state     : {dtset: 1, }
comment             : Components of total free energy in Hartree
kinetic             :  3.35562426846531E+00
hartree             :  1.88534703851226E+01
xc                  : -3.18468856284567E+00
Ewald energy        :  1.25558131738488E+01
psp_core            :  1.31137011198514E-01
local_psp           : -4.13660560509525E+01
non_local_psp       :  1.29358404820502E+00
total_energy        : -8.36111572695792E+00
total_energy_eV     : -2.27517529544135E+02
band_energy         : -2.35418928886000E+00
...


 Cartesian components of stress tensor (hartree/bohr^3)
  sigma(1 1)= -5.17189631E-04  sigma(3 2)=  0.00000000E+00
  sigma(2 2)= -4.17680720E-04  sigma(3 1)=  0.00000000E+00
  sigma(3 3)=  4.09347223E-07  sigma(2 1)=  0.00000000E+00

-Cartesian components of stress tensor (GPa)         [Pressure=  9.1643E+00 GPa]
- sigma(1 1)= -1.52162417E+01  sigma(3 2)=  0.00000000E+00
- sigma(2 2)= -1.22885890E+01  sigma(3 1)=  0.00000000E+00
- sigma(3 3)=  1.20434091E-02  sigma(2 1)=  0.00000000E+00

================================================================================
== DATASET  2 ==================================================================
-   mpi_nproc: 1, omp_nthreads: -1 (-1 if OMP is not activated)


--- !DatasetInfo
iteration_state: {dtset: 2, }
dimensions: {natom: 2, nkpt: 38, mband: 8, nsppol: 1, nspinor: 1, nspden: 1, mpw: 3190, }
cutoff_energies: {ecut:  15.0, pawecutdg:  -1.0, }
electrons: {nelect:   8.00000000E+00, charge:   0.00000000E+00, occopt:   1.00000000E+00, tsmear:   1.00000000E-02, }
meta: {optdriver: 0, ionmov: 0, optcell: 0, iscf: -2, paral_kgb: 0, }
...

 mkfilename : getden/=0, take file _DEN from output of DATASET   1.

 Exchange-correlation functional for the present dataset will be:
  GGA: Perdew-Burke-Ernzerhof functional - ixc=11
 Citation for XC functional:
  J.P.Perdew, K.Burke, M.Ernzerhof, PRL 77, 3865 (1996)

 Real(R)+Recip(G) space primitive vectors, cartesian coordinates (Bohr,Bohr^-1):
 R(1)=  3.3100000  5.7400000  0.0000000  G(1)=  0.1510574  0.0871080  0.0000000
 R(2)= -3.3100000  5.7400000  0.0000000  G(2)= -0.1510574  0.0871080  0.0000000
 R(3)=  0.0000000  0.0000000 30.0000000  G(3)=  0.0000000  0.0000000  0.0333333
 Unit cell volume ucvol=  1.1399640E+03 bohr^3
 Angles (23,13,12)=  9.00000000E+01  9.00000000E+01  5.99402325E+01 degrees

 getcut: wavevector=  0.0000  0.0000  0.0000  ngfft=  24  24 108
         ecut(hartree)=     15.000   => boxcut(ratio)=   2.06487
--------------------------------------------------------------------------------


================================================================================
 prteigrs : about to open file sibso_DS2_EIG
 Non-SCF case, kpt    1 (  0.50000  0.00000  0.00000), residuals and eigenvalues=
  3.90E-13  2.76E-13  7.17E-13  2.13E-13  9.64E-13  6.09E-13  3.48E-09  3.70E-06
 -4.4394E-01 -3.9106E-01 -1.9955E-01 -1.2958E-01 -6.8051E-02 -4.1599E-02
  1.4352E-01  1.6670E-01
 Non-SCF case, kpt    2 (  0.45000  0.00000  0.00000), residuals and eigenvalues=
  5.03E-13  6.45E-13  5.42E-13  5.26E-13  7.14E-13  4.37E-13  2.61E-10  2.21E-05
 -4.5345E-01 -3.7935E-01 -1.9849E-01 -1.3797E-01 -5.7276E-02 -4.0345E-02
  1.2709E-01  1.8471E-01
 Non-SCF case, kpt    3 (  0.40000  0.00000  0.00000), residuals and eigenvalues=
  8.90E-13  3.49E-13  7.91E-13  7.08E-13  8.02E-13  5.95E-13  1.61E-10  1.83E-07
 -4.7124E-01 -3.5499E-01 -1.9530E-01 -1.5457E-01 -3.6614E-02 -3.3538E-02
  1.0462E-01  1.6276E-01
 Non-SCF case, kpt    4 (  0.35000  0.00000  0.00000), residuals and eigenvalues=
  8.45E-13  2.53E-13  4.07E-13  6.97E-13  9.80E-13  9.64E-13  1.25E-11  2.44E-09
 -4.8935E-01 -3.2608E-01 -1.9006E-01 -1.7194E-01 -3.0506E-02 -4.3679E-03
  8.3779E-02  1.4124E-01
 Non-SCF case, kpt    5 (  0.30000  0.00000  0.00000), residuals and eigenvalues=
  5.60E-13  1.81E-13  5.92E-13  6.52E-13  6.43E-13  7.54E-13  1.92E-11  2.17E-08
 -5.0586E-01 -2.9481E-01 -1.8791E-01 -1.8290E-01 -2.2221E-02  2.7924E-02
  6.5375E-02  1.2239E-01
 Non-SCF case, kpt    6 (  0.25000  0.00000  0.00000), residuals and eigenvalues=
  6.66E-13  5.96E-13  6.94E-13  6.66E-13  4.77E-13  7.83E-13  3.93E-13  4.71E-09
 -5.2019E-01 -2.6219E-01 -2.0181E-01 -1.7403E-01 -1.2119E-02  4.9647E-02
  6.2414E-02  1.0640E-01
 Non-SCF case, kpt    7 (  0.20000  0.00000  0.00000), residuals and eigenvalues=
  6.48E-13  8.79E-13  5.38E-13  2.91E-13  5.45E-13  9.30E-13  2.00E-07  8.69E-05
 -5.3208E-01 -2.2924E-01 -2.1336E-01 -1.6382E-01 -8.4460E-04  3.6733E-02
  9.2125E-02  9.7780E-02
 Non-SCF case, kpt    8 (  0.15000  0.00000  0.00000), residuals and eigenvalues=
  5.84E-13  4.90E-13  2.29E-13  4.76E-13  9.60E-13  5.21E-13  1.01E-07  2.13E-09
 -5.4143E-01 -2.2242E-01 -1.9743E-01 -1.5292E-01  1.0348E-02  2.6790E-02
  6.6858E-02  8.2671E-02
 Non-SCF case, kpt    9 (  0.10000  0.00000  0.00000), residuals and eigenvalues=
  6.36E-13  7.17E-13  5.33E-13  5.89E-13  7.98E-13  1.67E-13  5.29E-11  1.44E-08
 -5.4814E-01 -2.2893E-01 -1.6929E-01 -1.4234E-01  1.7317E-02  2.1779E-02
  4.4870E-02  7.5371E-02
 Non-SCF case, kpt   10 (  0.05000  0.00000  0.00000), residuals and eigenvalues=
  4.38E-13  7.59E-13  7.74E-13  6.88E-13  6.02E-13  9.44E-13  2.67E-11  6.89E-08
 -5.5218E-01 -2.3285E-01 -1.4929E-01 -1.3357E-01  1.4449E-02  2.2464E-02
  3.3479E-02  7.0972E-02
 Non-SCF case, kpt   11 (  0.00000  0.00000  0.00000), residuals and eigenvalues=
  5.32E-13  8.93E-13  5.50E-13  5.03E-13  8.11E-13  8.96E-13  7.40E-12  2.51E-11
 -5.5353E-01 -2.3416E-01 -1.4229E-01 -1.2958E-01  1.3125E-02  1.9673E-02
  3.2275E-02  6.9504E-02
 Non-SCF case, kpt   12 (  0.00000  0.05000  0.05000), residuals and eigenvalues=
  9.54E-13  5.57E-13  2.72E-13  2.85E-13  5.58E-13  9.77E-13  5.72E-12  1.18E-09
 -5.5218E-01 -2.3285E-01 -1.4929E-01 -1.3357E-01  1.4455E-02  2.2464E-02
  3.3480E-02  7.0704E-02
 Non-SCF case, kpt   13 (  0.00000  0.10000  0.10000), residuals and eigenvalues=
  8.85E-13  2.79E-13  1.89E-13  6.98E-13  9.09E-13  9.74E-13  1.09E-10  1.24E-09
 -5.4814E-01 -2.2893E-01 -1.6929E-01 -1.4234E-01  1.7327E-02  2.1786E-02
  4.4872E-02  7.4403E-02
 Non-SCF case, kpt   14 (  0.00000  0.15000  0.15000), residuals and eigenvalues=
  9.43E-13  4.55E-13  2.36E-13  6.68E-13  5.25E-13  4.89E-13  8.90E-10  1.52E-09
 -5.4143E-01 -2.2242E-01 -1.9743E-01 -1.5292E-01  1.0346E-02  2.6833E-02
  6.6858E-02  8.0790E-02
 Non-SCF case, kpt   15 (  0.00000  0.20000  0.20000), residuals and eigenvalues=
  4.22E-13  6.39E-13  3.79E-13  3.41E-13  3.15E-13  5.67E-13  2.59E-07  4.60E-05
 -5.3208E-01 -2.2924E-01 -2.1336E-01 -1.6383E-01 -8.4470E-04  3.6804E-02
  8.9629E-02  9.8295E-02
 Non-SCF case, kpt   16 (  0.00000  0.25000  0.25000), residuals and eigenvalues=
  6.78E-13  7.92E-13  7.57E-13  5.10E-13  8.37E-13  8.50E-13  5.39E-13  5.38E-09
 -5.2019E-01 -2.6219E-01 -2.0181E-01 -1.7403E-01 -1.2117E-02  4.9746E-02
  6.2409E-02  1.0264E-01
 Non-SCF case, kpt   17 (  0.00000  0.30000  0.30000), residuals and eigenvalues=
  4.47E-13  5.38E-13  3.69E-13  5.02E-13  2.43E-13  8.62E-13  7.78E-11  1.34E-08
 -5.0586E-01 -2.9481E-01 -1.8791E-01 -1.8290E-01 -2.2219E-02  2.7928E-02
  6.5498E-02  1.1793E-01
 Non-SCF case, kpt   18 (  0.00000  0.35000  0.35000), residuals and eigenvalues=
  7.70E-13  9.32E-13  8.77E-13  3.68E-13  7.16E-13  6.01E-13  3.43E-12  2.66E-09
 -4.8935E-01 -3.2608E-01 -1.9006E-01 -1.7194E-01 -3.0504E-02 -4.3660E-03
  8.3921E-02  1.3631E-01
 Non-SCF case, kpt   19 (  0.00000  0.40000  0.40000), residuals and eigenvalues=
  8.15E-13  8.13E-13  6.53E-13  2.54E-13  4.86E-13  5.95E-13  1.70E-10  3.41E-07
 -4.7124E-01 -3.5499E-01 -1.9530E-01 -1.5457E-01 -3.6611E-02 -3.3535E-02
  1.0476E-01  1.5767E-01
 Non-SCF case, kpt   20 (  0.00000  0.45000  0.45000), residuals and eigenvalues=
  8.63E-13  4.60E-13  8.65E-13  3.42E-13  3.14E-13  7.47E-13  9.79E-10  2.19E-06
 -4.5345E-01 -3.7935E-01 -1.9848E-01 -1.3797E-01 -5.7275E-02 -4.0343E-02
  1.2722E-01  1.8167E-01
 Non-SCF case, kpt   21 (  0.00000  0.50000  0.50000), residuals and eigenvalues=
  6.40E-13  6.93E-13  3.50E-13  3.18E-13  3.42E-13  6.73E-13  2.98E-07  3.12E-06
 -4.4394E-01 -3.9106E-01 -1.9955E-01 -1.2958E-01 -6.8053E-02 -4.1597E-02
  1.4359E-01  1.6694E-01
 Non-SCF case, kpt   22 (  0.05882  0.52941  0.52941), residuals and eigenvalues=
  3.84E-13  5.95E-13  7.47E-13  4.69E-13  5.90E-13  2.60E-13  3.41E-07  1.22E-04
 -4.4253E-01 -3.9047E-01 -2.0946E-01 -1.2818E-01 -6.7774E-02 -2.9024E-02
  1.4486E-01  1.6551E-01
 Non-SCF case, kpt   23 (  0.11765  0.55882  0.55882), residuals and eigenvalues=
  3.90E-13  3.51E-13  1.75E-13  4.52E-13  5.09E-13  6.48E-13  1.77E-08  1.10E-07
 -4.3829E-01 -3.8895E-01 -2.3234E-01 -1.2399E-01 -6.7262E-02  1.9510E-03
  1.2676E-01  1.4858E-01
 Non-SCF case, kpt   24 (  0.17647  0.58824  0.58824), residuals and eigenvalues=
  6.98E-13  5.57E-13  6.44E-13  7.43E-13  9.49E-13  5.33E-13  2.01E-12  4.24E-07
 -4.3126E-01 -3.8742E-01 -2.5837E-01 -1.1702E-01 -6.7588E-02  4.1799E-02
  9.5979E-02  1.5452E-01
 Non-SCF case, kpt   25 (  0.23529  0.61765  0.61765), residuals and eigenvalues=
  7.87E-13  5.89E-13  2.26E-13  7.34E-13  9.79E-13  7.45E-13  7.64E-12  3.82E-06
 -4.2149E-01 -3.8796E-01 -2.8107E-01 -1.0729E-01 -7.0716E-02  7.2382E-02
  8.4066E-02  1.6206E-01
 Non-SCF case, kpt   26 (  0.29412  0.64706  0.64706), residuals and eigenvalues=
  4.33E-13  4.78E-13  5.24E-13  3.11E-13  5.25E-13  9.64E-13  4.05E-08  9.85E-06
 -4.0928E-01 -3.9373E-01 -2.9520E-01 -9.5034E-02 -7.8762E-02  5.8898E-02
  1.1854E-01  1.6881E-01
 Non-SCF case, kpt   27 (  0.35294  0.67647  0.67647), residuals and eigenvalues=
  3.92E-13  3.17E-13  2.95E-13  9.82E-13  5.08E-13  6.85E-13  5.34E-08  1.77E-05
 -4.0877E-01 -3.9264E-01 -2.9797E-01 -9.4198E-02 -7.8509E-02  5.6454E-02
  1.2277E-01  1.6745E-01
 Non-SCF case, kpt   28 (  0.41176  0.70588  0.70588), residuals and eigenvalues=
  9.75E-13  5.53E-13  7.68E-13  4.47E-13  7.86E-13  3.22E-13  1.71E-08  2.69E-06
 -4.2727E-01 -3.7519E-01 -2.9130E-01 -1.1214E-01 -6.0807E-02  6.3299E-02
  1.0686E-01  1.5414E-01
 Non-SCF case, kpt   29 (  0.47059  0.73529  0.73529), residuals and eigenvalues=
  3.12E-13  3.16E-13  2.67E-13  4.93E-13  2.81E-13  3.69E-13  6.29E-11  2.70E-10
 -4.4798E-01 -3.5481E-01 -2.7857E-01 -1.3201E-01 -4.0021E-02  7.6839E-02
  8.7896E-02  1.3151E-01
 Non-SCF case, kpt   30 (  0.52941  0.76471  0.76471), residuals and eigenvalues=
  6.30E-13  3.28E-13  7.24E-13  5.73E-13  7.25E-13  9.79E-13  8.99E-11  2.99E-08
 -4.6841E-01 -3.3197E-01 -2.6202E-01 -1.5168E-01 -1.6479E-02  6.9768E-02
  9.4910E-02  1.0830E-01
 Non-SCF case, kpt   31 (  0.58824  0.79412  0.79412), residuals and eigenvalues=
  8.23E-13  4.27E-13  2.53E-13  9.33E-13  6.30E-13  8.59E-13  3.13E-10  1.80E-06
 -4.8744E-01 -3.0687E-01 -2.4301E-01 -1.7008E-01  9.7362E-03  5.3670E-02
  8.6845E-02  1.1453E-01
 Non-SCF case, kpt   32 (  0.64706  0.82353  0.82353), residuals and eigenvalues=
  4.10E-13  4.87E-13  2.21E-13  5.74E-13  5.15E-13  7.00E-13  4.81E-12  8.84E-06
 -5.0448E-01 -2.7975E-01 -2.2258E-01 -1.8659E-01  3.8545E-02  4.0215E-02
  6.7854E-02  9.7114E-02
 Non-SCF case, kpt   33 (  0.70588  0.85294  0.85294), residuals and eigenvalues=
  8.13E-13  2.47E-13  4.86E-13  3.21E-13  9.88E-13  6.38E-13  1.35E-08  2.40E-06
 -5.1921E-01 -2.5098E-01 -2.0176E-01 -2.0088E-01  2.9821E-02  5.1618E-02
  6.9824E-02  8.2216E-02
 Non-SCF case, kpt   34 (  0.76471  0.88235  0.88235), residuals and eigenvalues=
  7.59E-13  8.50E-13  7.24E-13  8.71E-13  8.62E-13  5.50E-13  1.06E-08  2.05E-07
 -5.3145E-01 -2.2118E-01 -2.1275E-01 -1.8175E-01  2.2787E-02  3.8307E-02
  6.9028E-02  9.2333E-02
 Non-SCF case, kpt   35 (  0.82353  0.91176  0.91176), residuals and eigenvalues=
  7.10E-13  6.10E-13  8.73E-13  7.49E-13  6.67E-13  5.47E-13  3.24E-09  2.46E-09
 -5.4106E-01 -2.2207E-01 -1.9151E-01 -1.6392E-01  1.9041E-02  2.8140E-02
  5.7183E-02  8.2359E-02
 Non-SCF case, kpt   36 (  0.88235  0.94118  0.94118), residuals and eigenvalues=
  9.20E-13  2.56E-13  5.06E-13  7.50E-13  7.32E-13  6.21E-13  1.34E-09  7.36E-09
 -5.4798E-01 -2.2877E-01 -1.6454E-01 -1.4929E-01  1.7076E-02  2.2016E-02
  4.5981E-02  7.5207E-02
 Non-SCF case, kpt   37 (  0.94118  0.97059  0.97059), residuals and eigenvalues=
  7.37E-13  6.51E-13  2.07E-13  2.46E-13  9.98E-13  5.82E-13  2.63E-12  2.42E-11
 -5.5214E-01 -2.3281E-01 -1.4692E-01 -1.3657E-01  1.4350E-02  2.0489E-02
  3.6141E-02  7.0927E-02
 Non-SCF case, kpt   38 (  1.00000  1.00000  1.00000), residuals and eigenvalues=
  6.31E-13  8.51E-13  1.67E-13  4.49E-13  5.59E-13  2.99E-13  1.42E-12  8.30E-08
 -5.5353E-01 -2.3416E-01 -1.4229E-01 -1.2958E-01  1.3125E-02  1.9673E-02
  3.2275E-02  6.9505E-02


--- !ResultsGS
iteration_state: {dtset: 2, }
comment   : Summary of ground state results
lattice_vectors:
- [  3.3100000,   5.7400000,   0.0000000, ]
- [ -3.3100000,   5.7400000,   0.0000000, ]
- [  0.0000000,   0.0000000,  30.0000000, ]
lattice_lengths: [   6.62599,    6.62599,   30.00000, ]
lattice_angles: [ 90.000,  90.000,  59.940, ] # degrees, (23, 13, 12)
lattice_volume:   1.1399640E+03
convergence: {deltae:  0.000E+00, res2:  0.000E+00, residm:  9.983E-13, diffor:  0.000E+00, }
etotal    :  -8.36111573E+00
entropy   :   0.00000000E+00
fermie    :  -1.04737205E-01
cartesian_stress_tensor: null
pressure_GPa: null
xred      :
- [  3.3000E-01,   3.3000E-01,   0.0000E+00, Si]
- [  6.7000E-01,   6.7000E-01,   0.0000E+00, Si]
cartesian_forces: null
force_length_stats: {min: null, max: null, mean: null, }
...

 Integrated electronic density in atomic spheres:
 ------------------------------------------------
 Atom  Sphere_radius  Integrated_density
    1        2.00000          2.11385640
    2        2.00000          2.11385640
================================================================================

 ----iterations are completed or convergence reached----

 Mean square residual over all n,k,spin=   59.504E-14; max=  99.826E-14
 reduced coordinates (array xred) for    2 atoms
       0.330000000000      0.330000000000      0.000000000000
       0.670000000000      0.670000000000      0.000000000000

 cartesian coordinates (angstrom) at end:
    1      0.00000000000000     2.00473493702236     0.00000000000000
    2     -0.00000000000000     4.07021941759084     0.00000000000000
 length scales=  1.000000000000  1.000000000000  1.000000000000 bohr
              =  0.529177208590  0.529177208590  0.529177208590 angstroms
 prteigrs : about to open file sibso_DS2_EIG
 Eigenvalues (   eV  ) for nkpt=  38  k points:
 kpt#   1, nband=  8, wtk=  1.00000, kpt=  0.5000  0.0000  0.0000 (reduced coord)
 -12.08028  -10.64139   -5.43011   -3.52608   -1.85177   -1.13195    3.90536    4.53609
 kpt#   2, nband=  8, wtk=  1.00000, kpt=  0.4500  0.0000  0.0000 (reduced coord)
 -12.33907  -10.32261   -5.40106   -3.75434   -1.55855   -1.09784    3.45835    5.02627
 kpt#   3, nband=  8, wtk=  1.00000, kpt=  0.4000  0.0000  0.0000 (reduced coord)
 -12.82300   -9.65989   -5.31441   -4.20619   -0.99632   -0.91260    2.84674    4.42899
 kpt#   4, nband=  8, wtk=  1.00000, kpt=  0.3500  0.0000  0.0000 (reduced coord)
 -13.31582   -8.87321   -5.17192   -4.67880   -0.83010   -0.11886    2.27975    3.84337
 kpt#   5, nband=  8, wtk=  1.00000, kpt=  0.3000  0.0000  0.0000 (reduced coord)
 -13.76511   -8.02211   -5.11342   -4.97700   -0.60465    0.75984    1.77895    3.33042
 kpt#   6, nband=  8, wtk=  1.00000, kpt=  0.2500  0.0000  0.0000 (reduced coord)
 -14.15496   -7.13459   -5.49156   -4.73563   -0.32976    1.35098    1.69837    2.89538
 kpt#   7, nband=  8, wtk=  1.00000, kpt=  0.2000  0.0000  0.0000 (reduced coord)
 -14.47871   -6.23801   -5.80572   -4.45790   -0.02298    0.99955    2.50685    2.66072
 kpt#   8, nband=  8, wtk=  1.00000, kpt=  0.1500  0.0000  0.0000 (reduced coord)
 -14.73293   -6.05234   -5.37226   -4.16115    0.28159    0.72900    1.81929    2.24959
 kpt#   9, nband=  8, wtk=  1.00000, kpt=  0.1000  0.0000  0.0000 (reduced coord)
 -14.91566   -6.22950   -4.60654   -3.87316    0.47123    0.59263    1.22097    2.05095
 kpt#  10, nband=  8, wtk=  1.00000, kpt=  0.0500  0.0000  0.0000 (reduced coord)
 -15.02571   -6.33615   -4.06245   -3.63466    0.39318    0.61127    0.91102    1.93125
 kpt#  11, nband=  8, wtk=  1.00000, kpt=  0.0000  0.0000  0.0000 (reduced coord)
 -15.06245   -6.37175   -3.87180   -3.52611    0.35715    0.53533    0.87825    1.89131
 kpt#  12, nband=  8, wtk=  1.00000, kpt=  0.0000  0.0500  0.0500 (reduced coord)
 -15.02571   -6.33615   -4.06243   -3.63464    0.39334    0.61129    0.91104    1.92395
 kpt#  13, nband=  8, wtk=  1.00000, kpt=  0.0000  0.1000  0.1000 (reduced coord)
 -14.91566   -6.22950   -4.60653   -3.87314    0.47150    0.59283    1.22102    2.02461
 kpt#  14, nband=  8, wtk=  1.00000, kpt=  0.0000  0.1500  0.1500 (reduced coord)
 -14.73293   -6.05234   -5.37225   -4.16116    0.28154    0.73017    1.81931    2.19840
 kpt#  15, nband=  8, wtk=  1.00000, kpt=  0.0000  0.2000  0.2000 (reduced coord)
 -14.47871   -6.23801   -5.80572   -4.45791   -0.02299    1.00148    2.43893    2.67473
 kpt#  16, nband=  8, wtk=  1.00000, kpt=  0.0000  0.2500  0.2500 (reduced coord)
 -14.15496   -7.13460   -5.49156   -4.73561   -0.32973    1.35365    1.69823    2.79306
 kpt#  17, nband=  8, wtk=  1.00000, kpt=  0.0000  0.3000  0.3000 (reduced coord)
 -13.76511   -8.02209   -5.11343   -4.97699   -0.60460    0.75996    1.78228    3.20892
 kpt#  18, nband=  8, wtk=  1.00000, kpt=  0.0000  0.3500  0.3500 (reduced coord)
 -13.31582   -8.87321   -5.17192   -4.67878   -0.83006   -0.11881    2.28360    3.70908
 kpt#  19, nband=  8, wtk=  1.00000, kpt=  0.0000  0.4000  0.4000 (reduced coord)
 -12.82300   -9.65988   -5.31439   -4.20619   -0.99624   -0.91255    2.85069    4.29054
 kpt#  20, nband=  8, wtk=  1.00000, kpt=  0.0000  0.4500  0.4500 (reduced coord)
 -12.33907  -10.32260   -5.40105   -3.75437   -1.55853   -1.09778    3.46178    4.94342
 kpt#  21, nband=  8, wtk=  1.00000, kpt=  0.0000  0.5000  0.5000 (reduced coord)
 -12.08028  -10.64138   -5.43012   -3.52608   -1.85182   -1.13191    3.90725    4.54275
 kpt#  22, nband=  8, wtk=  1.00000, kpt=  0.0588  0.5294  0.5294 (reduced coord)
 -12.04180  -10.62527   -5.69969   -3.48804   -1.84423   -0.78979    3.94175    4.50362
 kpt#  23, nband=  8, wtk=  1.00000, kpt=  0.1176  0.5588  0.5588 (reduced coord)
 -11.92654  -10.58384   -6.32221   -3.37397   -1.83029    0.05309    3.44945    4.04314
 kpt#  24, nband=  8, wtk=  1.00000, kpt=  0.1765  0.5882  0.5882 (reduced coord)
 -11.73517  -10.54223   -7.03066   -3.18417   -1.83916    1.13740    2.61173    4.20464
 kpt#  25, nband=  8, wtk=  1.00000, kpt=  0.2353  0.6176  0.6176 (reduced coord)
 -11.46930  -10.55694   -7.64841   -2.91949   -1.92429    1.96962    2.28756    4.40996
 kpt#  26, nband=  8, wtk=  1.00000, kpt=  0.2941  0.6471  0.6471 (reduced coord)
 -11.13704  -10.71392   -8.03279   -2.58600   -2.14323    1.60270    3.22560    4.59368
 kpt#  27, nband=  8, wtk=  1.00000, kpt=  0.3529  0.6765  0.6765 (reduced coord)
 -11.12310  -10.68429   -8.10805   -2.56327   -2.13635    1.53618    3.34078    4.55668
 kpt#  28, nband=  8, wtk=  1.00000, kpt=  0.4118  0.7059  0.7059 (reduced coord)
 -11.62660  -10.20933   -7.92666   -3.05161   -1.65464    1.72245    2.90777    4.19443
 kpt#  29, nband=  8, wtk=  1.00000, kpt=  0.4706  0.7353  0.7353 (reduced coord)
 -12.19012   -9.65501   -7.58019   -3.59217   -1.08903    2.09088    2.39177    3.57859
 kpt#  30, nband=  8, wtk=  1.00000, kpt=  0.5294  0.7647  0.7647 (reduced coord)
 -12.74615   -9.03349   -7.12987   -4.12753   -0.44843    1.89849    2.58263    2.94700
 kpt#  31, nband=  8, wtk=  1.00000, kpt=  0.5882  0.7941  0.7941 (reduced coord)
 -13.26386   -8.35033   -6.61270   -4.62803    0.26494    1.46044    2.36316    3.11644
 kpt#  32, nband=  8, wtk=  1.00000, kpt=  0.6471  0.8235  0.8235 (reduced coord)
 -13.72755   -7.61227   -6.05676   -5.07734    1.04887    1.09430    1.84640    2.64261
 kpt#  33, nband=  8, wtk=  1.00000, kpt=  0.7059  0.8529  0.8529 (reduced coord)
 -14.12846   -6.82942   -5.49020   -5.46619    0.81147    1.40461    1.90002    2.23720
 kpt#  34, nband=  8, wtk=  1.00000, kpt=  0.7647  0.8824  0.8824 (reduced coord)
 -14.46139   -6.01862   -5.78912   -4.94579    0.62006    1.04239    1.87835    2.51251
 kpt#  35, nband=  8, wtk=  1.00000, kpt=  0.8235  0.9118  0.9118 (reduced coord)
 -14.72300   -6.04280   -5.21137   -4.46057    0.51814    0.76573    1.55604    2.24109
 kpt#  36, nband=  8, wtk=  1.00000, kpt=  0.8824  0.9412  0.9412 (reduced coord)
 -14.91118   -6.22519   -4.47749   -4.06227    0.46467    0.59909    1.25121    2.04648
 kpt#  37, nband=  8, wtk=  1.00000, kpt=  0.9412  0.9706  0.9706 (reduced coord)
 -15.02458   -6.33506   -3.99787   -3.71614    0.39049    0.55754    0.98346    1.93003
 kpt#  38, nband=  8, wtk=  1.00000, kpt=  1.0000  1.0000  1.0000 (reduced coord)
 -15.06245   -6.37175   -3.87180   -3.52611    0.35715    0.53533    0.87825    1.89132

== END DATASET(S) ==============================================================
================================================================================
  
 -outvars: echo values of variables after computation  --------
            acell      1.0000000000E+00  1.0000000000E+00  1.0000000000E+00 Bohr
              amu      2.80855000E+01
           diemac      1.00000000E+01
             ecut      1.50000000E+01 Hartree
           enunit1          0
           enunit2          1
           etotal1    -8.3611157270E+00
            fcart1     9.7931501985E-19  2.9527190361E-02 -2.1036290806E-31
                      -9.7931501985E-19 -2.9527190361E-02  2.1036290806E-31
-          fftalg         112
           getden1          0
           getden2         -1
             iscf1          7
             iscf2         -2
           istwfk2       3    0    0    0    0    0    0    0    0    0
                         2    0    0    0    0    0    0    0    0    0
                         8    0    0    0    0    0    0    0    0    0
                         0    0    0    0    0    0    0    0
              ixc          11
           jdtset        1    2
              kpt1    -1.25000000E-01  0.00000000E+00  0.00000000E+00
                      -1.25000000E-01  0.00000000E+00  2.50000000E-01
                      -2.50000000E-01  0.00000000E+00  1.25000000E-01
                      -1.25000000E-01  1.25000000E-01  1.25000000E-01
                      -3.75000000E-01  0.00000000E+00  0.00000000E+00
                      -2.50000000E-01  1.25000000E-01  0.00000000E+00
                      -1.25000000E-01  0.00000000E+00  5.00000000E-01
                      -2.50000000E-01  0.00000000E+00  3.75000000E-01
                      -1.25000000E-01  1.25000000E-01  3.75000000E-01
                      -3.75000000E-01  0.00000000E+00  2.50000000E-01
                      -2.50000000E-01  1.25000000E-01  2.50000000E-01
                       5.00000000E-01  0.00000000E+00  1.25000000E-01
                      -3.75000000E-01  1.25000000E-01  1.25000000E-01
                      -2.50000000E-01  2.50000000E-01  1.25000000E-01
                       5.00000000E-01  1.25000000E-01  0.00000000E+00
                      -3.75000000E-01  2.50000000E-01  0.00000000E+00
                      -3.75000000E-01  0.00000000E+00  5.00000000E-01
                      -2.50000000E-01  1.25000000E-01  5.00000000E-01
                       5.00000000E-01  0.00000000E+00  3.75000000E-01
                      -3.75000000E-01  1.25000000E-01  3.75000000E-01
                      -2.50000000E-01  2.50000000E-01  3.75000000E-01
                       5.00000000E-01  1.25000000E-01  2.50000000E-01
                      -3.75000000E-01  2.50000000E-01  2.50000000E-01
                       3.75000000E-01  1.25000000E-01  1.25000000E-01
                       5.00000000E-01  2.50000000E-01  1.25000000E-01
                      -3.75000000E-01  3.75000000E-01  1.25000000E-01
                       2.50000000E-01  1.25000000E-01  0.00000000E+00
                       3.75000000E-01  2.50000000E-01  0.00000000E+00
                       5.00000000E-01  3.75000000E-01  0.00000000E+00
                       5.00000000E-01  1.25000000E-01  5.00000000E-01
                      -3.75000000E-01  2.50000000E-01  5.00000000E-01
                       3.75000000E-01  1.25000000E-01  3.75000000E-01
                       5.00000000E-01  2.50000000E-01  3.75000000E-01
                      -3.75000000E-01  3.75000000E-01  3.75000000E-01
                       2.50000000E-01  1.25000000E-01  2.50000000E-01
                       3.75000000E-01  2.50000000E-01  2.50000000E-01
                       5.00000000E-01  3.75000000E-01  2.50000000E-01
                       0.00000000E+00  0.00000000E+00  1.25000000E-01
                       1.25000000E-01  1.25000000E-01  1.25000000E-01
                       2.50000000E-01  2.50000000E-01  1.25000000E-01
                       3.75000000E-01  3.75000000E-01  1.25000000E-01
                       5.00000000E-01  5.00000000E-01  1.25000000E-01
                       2.50000000E-01  1.25000000E-01  5.00000000E-01
                       3.75000000E-01  2.50000000E-01  5.00000000E-01
                       5.00000000E-01  3.75000000E-01  5.00000000E-01
                       0.00000000E+00  0.00000000E+00  3.75000000E-01
                       1.25000000E-01  1.25000000E-01  3.75000000E-01
                       2.50000000E-01  2.50000000E-01  3.75000000E-01
                       3.75000000E-01  3.75000000E-01  3.75000000E-01
                       5.00000000E-01  5.00000000E-01  3.75000000E-01
              kpt2     5.00000000E-01  0.00000000E+00  0.00000000E+00
                       4.50000000E-01  0.00000000E+00  0.00000000E+00
                       4.00000000E-01  0.00000000E+00  0.00000000E+00
                       3.50000000E-01  0.00000000E+00  0.00000000E+00
                       3.00000000E-01  0.00000000E+00  0.00000000E+00
                       2.50000000E-01  0.00000000E+00  0.00000000E+00
                       2.00000000E-01  0.00000000E+00  0.00000000E+00
                       1.50000000E-01  0.00000000E+00  0.00000000E+00
                       1.00000000E-01  0.00000000E+00  0.00000000E+00
                       5.00000000E-02  0.00000000E+00  0.00000000E+00
                       0.00000000E+00  0.00000000E+00  0.00000000E+00
                       0.00000000E+00  5.00000000E-02  5.00000000E-02
                       0.00000000E+00  1.00000000E-01  1.00000000E-01
                       0.00000000E+00  1.50000000E-01  1.50000000E-01
                       0.00000000E+00  2.00000000E-01  2.00000000E-01
                       0.00000000E+00  2.50000000E-01  2.50000000E-01
                       0.00000000E+00  3.00000000E-01  3.00000000E-01
                       0.00000000E+00  3.50000000E-01  3.50000000E-01
                       0.00000000E+00  4.00000000E-01  4.00000000E-01
                       0.00000000E+00  4.50000000E-01  4.50000000E-01
                       0.00000000E+00  5.00000000E-01  5.00000000E-01
                       5.88235294E-02  5.29411765E-01  5.29411765E-01
                       1.17647059E-01  5.58823529E-01  5.58823529E-01
                       1.76470588E-01  5.88235294E-01  5.88235294E-01
                       2.35294118E-01  6.17647059E-01  6.17647059E-01
                       2.94117647E-01  6.47058824E-01  6.47058824E-01
                       3.52941176E-01  6.76470588E-01  6.76470588E-01
                       4.11764706E-01  7.05882353E-01  7.05882353E-01
                       4.70588235E-01  7.35294118E-01  7.35294118E-01
                       5.29411765E-01  7.64705882E-01  7.64705882E-01
                       5.88235294E-01  7.94117647E-01  7.94117647E-01
                       6.47058824E-01  8.23529412E-01  8.23529412E-01
                       7.05882353E-01  8.52941176E-01  8.52941176E-01
                       7.64705882E-01  8.82352941E-01  8.82352941E-01
                       8.23529412E-01  9.11764706E-01  9.11764706E-01
                       8.82352941E-01  9.41176471E-01  9.41176471E-01
                       9.41176471E-01  9.70588235E-01  9.70588235E-01
                       1.00000000E+00  1.00000000E+00  1.00000000E+00
           kptopt1          1
           kptopt2         -3
         kptrlatt        0    8    0     -8    8    0     -4    4    4
          kptrlen1     5.29600000E+01
          kptrlen2     3.00000000E+01
P           mkmem1         50
P           mkmem2         38
            natom           2
            nband1          5
            nband2          8
           nbdbuf1          0
           nbdbuf2          2
           ndtset           2
           ndivsm1          0
           ndivsm2         10
            ngfft          24      24     108
             nkpt1         50
             nkpt2         38
            nstep          20
             nsym           8
           ntypat           1
              occ      2.000000  2.000000  2.000000  2.000000  0.000000
            rprim      3.3100000000E+00  5.7400000000E+00  0.0000000000E+00
                      -3.3100000000E+00  5.7400000000E+00  0.0000000000E+00
                       0.0000000000E+00  0.0000000000E+00  3.0000000000E+01
           shiftk1     0.00000000E+00  0.00000000E+00  5.00000000E-01
           shiftk2     5.00000000E-01  5.00000000E-01  5.00000000E-01
          spgroup          65
           strten1    -5.1718963132E-04 -4.1768072012E-04  4.0934722300E-07
                       0.0000000000E+00  0.0000000000E+00  0.0000000000E+00
           symrel      1  0  0   0  1  0   0  0  1      -1  0  0   0 -1  0   0  0 -1
                       0 -1  0  -1  0  0   0  0 -1       0  1  0   1  0  0   0  0  1
                      -1  0  0   0 -1  0   0  0  1       1  0  0   0  1  0   0  0 -1
                       0  1  0   1  0  0   0  0 -1       0 -1  0  -1  0  0   0  0  1
           toldfe1     1.00000000E-08 Hartree
           toldfe2     0.00000000E+00 Hartree
           tolwfr1     0.00000000E+00
           tolwfr2     1.00000000E-12
            typat      1  1
              wtk1       0.01563    0.03125    0.03125    0.01563    0.01563    0.01563
                         0.01563    0.03125    0.01563    0.03125    0.03125    0.01563
                         0.03125    0.01563    0.01563    0.01563    0.01563    0.01563
                         0.01563    0.03125    0.01563    0.03125    0.03125    0.03125
                         0.03125    0.01563    0.01563    0.01563    0.01563    0.01563
                         0.01563    0.03125    0.03125    0.01563    0.03125    0.03125
                         0.03125    0.00781    0.01563    0.01563    0.01563    0.00781
                         0.01563    0.01563    0.01563    0.00781    0.01563    0.01563
                         0.01563    0.00781
              wtk2       1.00000    1.00000    1.00000    1.00000    1.00000    1.00000
                         1.00000    1.00000    1.00000    1.00000    1.00000    1.00000
                         1.00000    1.00000    1.00000    1.00000    1.00000    1.00000
                         1.00000    1.00000    1.00000    1.00000    1.00000    1.00000
                         1.00000    1.00000    1.00000    1.00000    1.00000    1.00000
                         1.00000    1.00000    1.00000    1.00000    1.00000    1.00000
                         1.00000    1.00000
           xangst      1.0774836585E-17  2.0047349370E+00  0.0000000000E+00
                      -3.1043749462E-17  4.0702194176E+00  0.0000000000E+00
            xcart      2.0361490272E-17  3.7884000000E+00  0.0000000000E+00
                      -5.8664184621E-17  7.6916000000E+00  0.0000000000E+00
             xred      3.3000000000E-01  3.3000000000E-01  0.0000000000E+00
                       6.7000000000E-01  6.7000000000E-01  0.0000000000E+00
            znucl       14.00000

================================================================================


- Timing analysis has been suppressed with timopt=0



================================================================================

 Suggested references for the acknowledgment of ABINIT usage.

 The users of ABINIT have little formal obligations with respect to the ABINIT group
 (those specified in the GNU General Public License, http://www.gnu.org/copyleft/gpl.txt).
 However, it is common practice in the scientific literature,
 to acknowledge the efforts of people that have made the research possible.
 In this spirit, please find below suggested citations of work written by ABINIT developers,
 corresponding to implementations inside of ABINIT that you have used in the present run.
 Note also that it will be of great value to readers of publications presenting these results,
 to read papers enabling them to understand the theoretical formalism and details
 of the ABINIT implementation.
 For information on why they are suggested, see also https://docs.abinit.org/theory/acknowledgments.
-
- [1] The Abinit project: Impact, environment and recent developments.
- Computer Phys. Comm. 248, 107042 (2020).
- X.Gonze, B. Amadon, G. Antonius, F.Arnardi, L.Baguet, J.-M.Beuken,
- J.Bieder, F.Bottin, J.Bouchet, E.Bousquet, N.Brouwer, F.Bruneval,
- G.Brunin, T.Cavignac, J.-B. Charraud, Wei Chen, M.Cote, S.Cottenier,
- J.Denier, G.Geneste, Ph.Ghosez, M.Giantomassi, Y.Gillet, O.Gingras,
- D.R.Hamann, G.Hautier, Xu He, N.Helbig, N.Holzwarth, Y.Jia, F.Jollet,
- W.Lafargue-Dit-Hauret, K.Lejaeghere, M.A.L.Marques, A.Martin, C.Martins,
- H.P.C. Miranda, F.Naccarato, K. Persson, G.Petretto, V.Planes, Y.Pouillon,
- S.Prokhorenko, F.Ricci, G.-M.Rignanese, A.H.Romero, M.M.Schmitt, M.Torrent,
- M.J.van Setten, B.Van Troeye, M.J.Verstraete, G.Zerah and J.W.Zwanzig
- Comment: the fifth generic paper describing the ABINIT project.
- Note that a version of this paper, that is not formatted for Computer Phys. Comm. 
- is available at https://www.abinit.org/sites/default/files/ABINIT20.pdf .
- The licence allows the authors to put it on the Web.
- DOI and bibtex: see https://docs.abinit.org/theory/bibliography/#gonze2020
-
- [2] Optimized norm-conserving Vanderbilt pseudopotentials.
- D.R. Hamann, Phys. Rev. B 88, 085117 (2013).
- Comment: Some pseudopotential generated using the ONCVPSP code were used.
- DOI and bibtex: see https://docs.abinit.org/theory/bibliography/#hamann2013
-
- [3] ABINIT: Overview, and focus on selected capabilities
- J. Chem. Phys. 152, 124102 (2020).
- A. Romero, D.C. Allan, B. Amadon, G. Antonius, T. Applencourt, L.Baguet,
- J.Bieder, F.Bottin, J.Bouchet, E.Bousquet, F.Bruneval,
- G.Brunin, D.Caliste, M.Cote,
- J.Denier, C. Dreyer, Ph.Ghosez, M.Giantomassi, Y.Gillet, O.Gingras,
- D.R.Hamann, G.Hautier, F.Jollet, G. Jomard,
- A.Martin, 
- H.P.C. Miranda, F.Naccarato, G.Petretto, N.A. Pike, V.Planes,
- S.Prokhorenko, T. Rangel, F.Ricci, G.-M.Rignanese, M.Royo, M.Stengel, M.Torrent,
- M.J.van Setten, B.Van Troeye, M.J.Verstraete, J.Wiktor, J.W.Zwanziger, and X.Gonze.
- Comment: a global overview of ABINIT, with focus on selected capabilities .
- Note that a version of this paper, that is not formatted for J. Chem. Phys 
- is available at https://www.abinit.org/sites/default/files/ABINIT20_JPC.pdf .
- The licence allows the authors to put it on the Web.
- DOI and bibtex: see https://docs.abinit.org/theory/bibliography/#romero2020
-
- [4] Recent developments in the ABINIT software package.
- Computer Phys. Comm. 205, 106 (2016).
- X.Gonze, F.Jollet, F.Abreu Araujo, D.Adams, B.Amadon, T.Applencourt,
- C.Audouze, J.-M.Beuken, J.Bieder, A.Bokhanchuk, E.Bousquet, F.Bruneval
- D.Caliste, M.Cote, F.Dahm, F.Da Pieve, M.Delaveau, M.Di Gennaro,
- B.Dorado, C.Espejo, G.Geneste, L.Genovese, A.Gerossier, M.Giantomassi,
- Y.Gillet, D.R.Hamann, L.He, G.Jomard, J.Laflamme Janssen, S.Le Roux,
- A.Levitt, A.Lherbier, F.Liu, I.Lukacevic, A.Martin, C.Martins,
- M.J.T.Oliveira, S.Ponce, Y.Pouillon, T.Rangel, G.-M.Rignanese,
- A.H.Romero, B.Rousseau, O.Rubel, A.A.Shukri, M.Stankovski, M.Torrent,
- M.J.Van Setten, B.Van Troeye, M.J.Verstraete, D.Waroquier, J.Wiktor,
- B.Xu, A.Zhou, J.W.Zwanziger.
- Comment: the fourth generic paper describing the ABINIT project.
- Note that a version of this paper, that is not formatted for Computer Phys. Comm. 
- is available at https://www.abinit.org/sites/default/files/ABINIT16.pdf .
- The licence allows the authors to put it on the Web.
- DOI and bibtex: see https://docs.abinit.org/theory/bibliography/#gonze2016
-
- And optionally:
-
- [5] ABINIT: First-principles approach of materials and nanosystem properties.
- Computer Phys. Comm. 180, 2582-2615 (2009).
- X. Gonze, B. Amadon, P.-M. Anglade, J.-M. Beuken, F. Bottin, P. Boulanger, F. Bruneval,
- D. Caliste, R. Caracas, M. Cote, T. Deutsch, L. Genovese, Ph. Ghosez, M. Giantomassi
- S. Goedecker, D.R. Hamann, P. Hermet, F. Jollet, G. Jomard, S. Leroux, M. Mancini, S. Mazevet,
- M.J.T. Oliveira, G. Onida, Y. Pouillon, T. Rangel, G.-M. Rignanese, D. Sangalli, R. Shaltaf,
- M. Torrent, M.J. Verstraete, G. Zerah, J.W. Zwanziger
- Comment: the third generic paper describing the ABINIT project.
- Note that a version of this paper, that is not formatted for Computer Phys. Comm. 
- is available at https://www.abinit.org/sites/default/files/ABINIT_CPC_v10.pdf .
- The licence allows the authors to put it on the Web.
- DOI and bibtex: see https://docs.abinit.org/theory/bibliography/#gonze2009
-
- Proc.   0 individual time (sec): cpu=         57.4  wall=         57.4

================================================================================

 Calculation completed.
.Delivered   3 WARNINGs and   5 COMMENTs to log file.
+Overall time at end (sec) : cpu=         57.4  wall=         57.4
