
.Version 10.0.5 of ABINIT, released Apr 2024.
.(MPI version, prepared for a x86_64_linux_gnu13.2 computer) 

.Copyright (C) 1998-2024 ABINIT group . 
 ABINIT comes with ABSOLUTELY NO WARRANTY.
 It is free software, and you are welcome to redistribute it
 under certain conditions (GNU General Public License,
 see ~abinit/COPYING or http://www.gnu.org/copyleft/gpl.txt).

 ABINIT is a project of the Universite Catholique de Louvain,
 Corning Inc. and other collaborators, see ~abinit/doc/developers/contributors.txt .
 Please read https://docs.abinit.org/theory/acknowledgments for suggested
 acknowledgments of the ABINIT effort.
 For more information, see https://www.abinit.org .

.Starting date : Mon 10 Jun 2024.
- ( at 22h37 )
  
- input  file    -> Boron_Nitride_BandStructure.abi
- output file    -> Boron_Nitride_BandStructure.abo
- root for input  files -> Boron_Nitride_BandStructurei
- root for output files -> Boron_Nitride_BandStructureo

 DATASET    1 : space group Pm (#  6); Bravais mP (primitive monocl.)
================================================================================
 Values of the parameters that define the memory need for DATASET  1.
     intxc =       0    ionmov =       0      iscf =       7    lmnmax =       4
     lnmax =       4     mgfft =     192  mpssoang =       2    mqgrid =    9550
     natom =       4  nloc_mem =       1    nspden =       1   nspinor =       1
    nsppol =       1      nsym =       2    n1xccc =    2501    ntypat =       2
    occopt =       1   xclevel =       2
-    mband =           8        mffmem =           1         mkmem =          34
       mpw =       46624          nfft =      829440          nkpt =          34
================================================================================
P This job should need less than                     480.101 Mbytes of memory.
  Rough estimation (10% accuracy) of disk space for files :
_ WF disk file :    193.510 Mbytes ; DEN or POT disk file :      6.330 Mbytes.
================================================================================

 DATASET    2 : space group Pm (#  6); Bravais mP (primitive monocl.)
================================================================================
 Values of the parameters that define the memory need for DATASET  2.
     intxc =       0    ionmov =       0      iscf =      -2    lmnmax =       4
     lnmax =       4     mgfft =     192  mpssoang =       2    mqgrid =    9550
     natom =       4  nloc_mem =       1    nspden =       1   nspinor =       1
    nsppol =       1      nsym =       2    n1xccc =    2501    ntypat =       2
    occopt =       1   xclevel =       2
-    mband =           8        mffmem =           1         mkmem =         125
       mpw =       46631          nfft =      829440          nkpt =         125
================================================================================
P This job should need less than                     945.055 Mbytes of memory.
  Rough estimation (10% accuracy) of disk space for files :
_ WF disk file :    711.535 Mbytes ; DEN or POT disk file :      6.330 Mbytes.
================================================================================

--------------------------------------------------------------------------------
------------- Echo of variables that govern the present computation ------------
--------------------------------------------------------------------------------
-
- outvars: echo of selected default values                                      
-   iomode0 =  0 , fftalg0 =112 , wfoptalg0 =  0
-
- outvars: echo of global parameters not present in the input file              
-  max_nthreads =    0
-
 -outvars: echo values of preprocessed input variables --------
            acell      1.0000000000E+00  1.0000000000E+00  1.0000000000E+00 Bohr
              amu      1.08110000E+01  1.40067400E+01
           diemac      1.00000000E+01
             ecut      5.00000000E+01 Hartree
           enunit1          0
           enunit2          1
-          fftalg         112
           getden1          0
           getden2         -1
             iscf1          7
             iscf2         -2
           istwfk1       0    0    0    0    0    0    0    0    0    0
                         0    0    0    0    0    0    4    0    5    0
                         0    0    0    0    0    0    0    0    0    0
                         0    8    0    9
           istwfk2       3    0    0    0    0    0    0    0    0    0
                         2    0    0    0    0    0    0    0    0    0
                         0    0    0    0    0    0    0    0    0    0
                         0    0    0    0    0    0    0    0    0    0
                         0    0    0    0    0    0    0    0    0    0
                       outvar_i_n : Printing only first  50 k-points.
              ixc          11
           jdtset        1    2
              kpt1     1.25000000E-01  0.00000000E+00  0.00000000E+00
                       3.75000000E-01  0.00000000E+00  0.00000000E+00
                       0.00000000E+00  1.25000000E-01  0.00000000E+00
                       2.50000000E-01  1.25000000E-01  0.00000000E+00
                       5.00000000E-01  1.25000000E-01  0.00000000E+00
                      -2.50000000E-01  1.25000000E-01  0.00000000E+00
                       1.25000000E-01  2.50000000E-01  0.00000000E+00
                       3.75000000E-01  2.50000000E-01  0.00000000E+00
                      -3.75000000E-01  2.50000000E-01  0.00000000E+00
                      -1.25000000E-01  2.50000000E-01  0.00000000E+00
                       0.00000000E+00  3.75000000E-01  0.00000000E+00
                       2.50000000E-01  3.75000000E-01  0.00000000E+00
                       5.00000000E-01  3.75000000E-01  0.00000000E+00
                      -2.50000000E-01  3.75000000E-01  0.00000000E+00
                       1.25000000E-01  5.00000000E-01  0.00000000E+00
                       3.75000000E-01  5.00000000E-01  0.00000000E+00
                       0.00000000E+00  0.00000000E+00  5.00000000E-01
                       2.50000000E-01  0.00000000E+00  5.00000000E-01
                       5.00000000E-01  0.00000000E+00  5.00000000E-01
                       1.25000000E-01  1.25000000E-01  5.00000000E-01
                       3.75000000E-01  1.25000000E-01  5.00000000E-01
                      -3.75000000E-01  1.25000000E-01  5.00000000E-01
                      -1.25000000E-01  1.25000000E-01  5.00000000E-01
                       0.00000000E+00  2.50000000E-01  5.00000000E-01
                       2.50000000E-01  2.50000000E-01  5.00000000E-01
                       5.00000000E-01  2.50000000E-01  5.00000000E-01
                      -2.50000000E-01  2.50000000E-01  5.00000000E-01
                       1.25000000E-01  3.75000000E-01  5.00000000E-01
                       3.75000000E-01  3.75000000E-01  5.00000000E-01
                      -3.75000000E-01  3.75000000E-01  5.00000000E-01
                      -1.25000000E-01  3.75000000E-01  5.00000000E-01
                       0.00000000E+00  5.00000000E-01  5.00000000E-01
                       2.50000000E-01  5.00000000E-01  5.00000000E-01
                       5.00000000E-01  5.00000000E-01  5.00000000E-01
              kpt2     5.00000000E-01  0.00000000E+00  0.00000000E+00
                       4.50000000E-01  0.00000000E+00  0.00000000E+00
                       4.00000000E-01  0.00000000E+00  0.00000000E+00
                       3.50000000E-01  0.00000000E+00  0.00000000E+00
                       3.00000000E-01  0.00000000E+00  0.00000000E+00
                       2.50000000E-01  0.00000000E+00  0.00000000E+00
                       2.00000000E-01  0.00000000E+00  0.00000000E+00
                       1.50000000E-01  0.00000000E+00  0.00000000E+00
                       1.00000000E-01  0.00000000E+00  0.00000000E+00
                       5.00000000E-02  0.00000000E+00  0.00000000E+00
                       0.00000000E+00  0.00000000E+00  0.00000000E+00
                       0.00000000E+00  9.61538462E-03  9.61538462E-03
                       0.00000000E+00  1.92307692E-02  1.92307692E-02
                       0.00000000E+00  2.88461538E-02  2.88461538E-02
                       0.00000000E+00  3.84615385E-02  3.84615385E-02
                       0.00000000E+00  4.80769231E-02  4.80769231E-02
                       0.00000000E+00  5.76923077E-02  5.76923077E-02
                       0.00000000E+00  6.73076923E-02  6.73076923E-02
                       0.00000000E+00  7.69230769E-02  7.69230769E-02
                       0.00000000E+00  8.65384615E-02  8.65384615E-02
                       0.00000000E+00  9.61538462E-02  9.61538462E-02
                       0.00000000E+00  1.05769231E-01  1.05769231E-01
                       0.00000000E+00  1.15384615E-01  1.15384615E-01
                       0.00000000E+00  1.25000000E-01  1.25000000E-01
                       0.00000000E+00  1.34615385E-01  1.34615385E-01
                       0.00000000E+00  1.44230769E-01  1.44230769E-01
                       0.00000000E+00  1.53846154E-01  1.53846154E-01
                       0.00000000E+00  1.63461538E-01  1.63461538E-01
                       0.00000000E+00  1.73076923E-01  1.73076923E-01
                       0.00000000E+00  1.82692308E-01  1.82692308E-01
                       0.00000000E+00  1.92307692E-01  1.92307692E-01
                       0.00000000E+00  2.01923077E-01  2.01923077E-01
                       0.00000000E+00  2.11538462E-01  2.11538462E-01
                       0.00000000E+00  2.21153846E-01  2.21153846E-01
                       0.00000000E+00  2.30769231E-01  2.30769231E-01
                       0.00000000E+00  2.40384615E-01  2.40384615E-01
                       0.00000000E+00  2.50000000E-01  2.50000000E-01
                       0.00000000E+00  2.59615385E-01  2.59615385E-01
                       0.00000000E+00  2.69230769E-01  2.69230769E-01
                       0.00000000E+00  2.78846154E-01  2.78846154E-01
                       0.00000000E+00  2.88461538E-01  2.88461538E-01
                       0.00000000E+00  2.98076923E-01  2.98076923E-01
                       0.00000000E+00  3.07692308E-01  3.07692308E-01
                       0.00000000E+00  3.17307692E-01  3.17307692E-01
                       0.00000000E+00  3.26923077E-01  3.26923077E-01
                       0.00000000E+00  3.36538462E-01  3.36538462E-01
                       0.00000000E+00  3.46153846E-01  3.46153846E-01
                       0.00000000E+00  3.55769231E-01  3.55769231E-01
                       0.00000000E+00  3.65384615E-01  3.65384615E-01
                       0.00000000E+00  3.75000000E-01  3.75000000E-01
                       outvar_i_n : Printing only first  50 k-points.
           kptopt1          1
           kptopt2         -3
         kptrlatt        4    4   -1      0    8    0      0    0    2
          kptrlen1     3.47993563E+01
          kptrlen2     3.00000000E+01
P           mkmem1         34
P           mkmem2        125
            natom           4
            nband1          8
            nband2          8
           nbdbuf1          0
           nbdbuf2          2
           ndtset           2
           ndivsm1          0
           ndivsm2         10
            ngfft         144      30     192
             nkpt1         34
             nkpt2        125
            nstep          25
             nsym           2
           ntypat           2
              occ      2.000000  2.000000  2.000000  2.000000  2.000000  2.000000
                       2.000000  0.000000
            rprim      2.2170000000E+01  3.7700000000E+00  0.0000000000E+00
                      -2.1700000000E+00  3.7700000000E+00  0.0000000000E+00
                       0.0000000000E+00  0.0000000000E+00  3.0000000000E+01
           shiftk1    -5.00000000E-01  0.00000000E+00  1.00000000E+00
           shiftk2     5.00000000E-01  5.00000000E-01  5.00000000E-01
          spgroup           6
           symrel      1  0  0   0  1  0   0  0  1       1  0  0   0  1  0   0  0 -1
            tnons      0.0000000  0.0000000  0.0000000     0.0000000  0.0000000  0.5000000
           toldfe1     1.00000000E-08 Hartree
           toldfe2     0.00000000E+00 Hartree
           tolwfr1     0.00000000E+00
           tolwfr2     1.00000000E-12
            typat      1  2  1  1
              wtk1       0.03125    0.03125    0.03125    0.03125    0.03125    0.03125
                         0.03125    0.03125    0.03125    0.03125    0.03125    0.03125
                         0.03125    0.03125    0.03125    0.03125    0.01563    0.03125
                         0.01563    0.03125    0.03125    0.03125    0.03125    0.03125
                         0.03125    0.03125    0.03125    0.03125    0.03125    0.03125
                         0.03125    0.01563    0.03125    0.01563
              wtk2       1.00000    1.00000    1.00000    1.00000    1.00000    1.00000
                         1.00000    1.00000    1.00000    1.00000    1.00000    1.00000
                         1.00000    1.00000    1.00000    1.00000    1.00000    1.00000
                         1.00000    1.00000    1.00000    1.00000    1.00000    1.00000
                         1.00000    1.00000    1.00000    1.00000    1.00000    1.00000
                         1.00000    1.00000    1.00000    1.00000    1.00000    1.00000
                         1.00000    1.00000    1.00000    1.00000    1.00000    1.00000
                         1.00000    1.00000    1.00000    1.00000    1.00000    1.00000
                         1.00000    1.00000
                       outvars : Printing only first  50 k-points.
           xangst      3.1021426322E+00  1.9949980764E+00  3.9688290644E+00
                       7.4814015396E+00  1.9949980764E+00  3.9688290644E+00
                       7.4814015396E+00  1.9949980764E+00  1.1906487193E+01
                       3.1021426322E+00  1.9949980764E+00  1.1906487193E+01
            xcart      5.8622000000E+00  3.7700000000E+00  7.5000000000E+00
                       1.4137800000E+01  3.7700000000E+00  7.5000000000E+00
                       1.4137800000E+01  3.7700000000E+00  2.2500000000E+01
                       5.8622000000E+00  3.7700000000E+00  2.2500000000E+01
             xred      3.3000000000E-01  6.7000000000E-01  2.5000000000E-01
                       6.7000000000E-01  3.3000000000E-01  2.5000000000E-01
                       6.7000000000E-01  3.3000000000E-01  7.5000000000E-01
                       3.3000000000E-01  6.7000000000E-01  7.5000000000E-01
            znucl        5.00000    7.00000

================================================================================

 chkinp: Checking input parameters for consistency, jdtset=   1.

 chkinp: Checking input parameters for consistency, jdtset=   2.

================================================================================
== DATASET  1 ==================================================================
-   mpi_nproc: 1, omp_nthreads: -1 (-1 if OMP is not activated)


--- !DatasetInfo
iteration_state: {dtset: 1, }
dimensions: {natom: 4, nkpt: 34, mband: 8, nsppol: 1, nspinor: 1, nspden: 1, mpw: 46624, }
cutoff_energies: {ecut:  50.0, pawecutdg:  -1.0, }
electrons: {nelect:   1.40000000E+01, charge:   0.00000000E+00, occopt:   1.00000000E+00, tsmear:   1.00000000E-02, }
meta: {optdriver: 0, ionmov: 0, optcell: 0, iscf: 7, paral_kgb: 0, }
...

 Exchange-correlation functional for the present dataset will be:
  GGA: Perdew-Burke-Ernzerhof functional - ixc=11
 Citation for XC functional:
  J.P.Perdew, K.Burke, M.Ernzerhof, PRL 77, 3865 (1996)

 Real(R)+Recip(G) space primitive vectors, cartesian coordinates (Bohr,Bohr^-1):
 R(1)= 22.1700000  3.7700000  0.0000000  G(1)=  0.0410846  0.0236482  0.0000000
 R(2)= -2.1700000  3.7700000  0.0000000  G(2)= -0.0410846  0.2416038  0.0000000
 R(3)=  0.0000000  0.0000000 30.0000000  G(3)=  0.0000000  0.0000000  0.0333333
 Unit cell volume ucvol=  2.7528540E+03 bohr^3
 Angles (23,13,12)=  9.00000000E+01  9.00000000E+01  1.10273785E+02 degrees

 getcut: wavevector=  0.0000  0.0000  0.0000  ngfft= 144  30 192
         ecut(hartree)=     50.000   => boxcut(ratio)=   2.01062

--- Pseudopotential description ------------------------------------------------
- pspini: atom type   1  psp file is /home/hrishi/abinit-10.0.5/Pseudopotentials/B.psp8
- pspatm: opening atomic psp file    /home/hrishi/abinit-10.0.5/Pseudopotentials/B.psp8
- B     ONCVPSP-3.2.3.1  r_core=   1.20849   1.20849
-  5.00000   3.00000    170503                znucl, zion, pspdat
    8   11    1    4       600   0.00000      pspcod,pspxc,lmax,lloc,mmax,r2well
    5.99000000000000    2.90000000000000    0.00000000000000   rchrg,fchrg,qchrg
     nproj     2     2
     extension_switch     1
  pspatm : epsatm=    3.38844677
         --- l  ekb(1:nproj) -->
             0    8.382104    1.234201
             1   -3.719492   -0.867526
 pspatm: atomic psp has been read  and splines computed

- pspini: atom type   2  psp file is /home/hrishi/abinit-10.0.5/Pseudopotentials/N.psp8
- pspatm: opening atomic psp file    /home/hrishi/abinit-10.0.5/Pseudopotentials/N.psp8
- N     ONCVPSP-3.2.3.1  r_core=   1.20551   1.35824
-  7.00000   5.00000    170503                znucl, zion, pspdat
    8   11    1    4       600   0.00000      pspcod,pspxc,lmax,lloc,mmax,r2well
    5.99000000000000    4.00000000000000    0.00000000000000   rchrg,fchrg,qchrg
     nproj     2     2
     extension_switch     1
  pspatm : epsatm=    5.20978323
         --- l  ekb(1:nproj) -->
             0    7.494509    0.636305
             1   -4.293905   -1.006988
 pspatm: atomic psp has been read  and splines computed

   2.15251729E+02                                ecore*ucvol(ha*bohr**3)
--------------------------------------------------------------------------------

_setup2: Arith. and geom. avg. npw (full set) are   46490.750   46490.654

================================================================================

--- !BeginCycle
iteration_state: {dtset: 1, }
solver: {iscf: 7, nstep: 25, nline: 4, wfoptalg: 0, }
tolerances: {toldfe: 1.00E-08, }
...

     iter   Etot(hartree)      deltaE(h)  residm     vres2
 ETOT  1  -17.250899017745    -1.725E+01 7.202E-02 7.166E+04
 ETOT  2  -12.523695470505     4.727E+00 3.252E-01 5.142E+05
 ETOT  3  -14.050527161739    -1.527E+00 1.737E-02 3.741E+05
 ETOT  4  -15.225904623601    -1.175E+00 1.542E-02 2.619E+05
 ETOT  5  -16.078206341564    -8.523E-01 1.179E-02 1.911E+05
 ETOT  6  -16.626433446257    -5.482E-01 2.916E-03 1.443E+05
 ETOT  7  -16.702031730625    -7.560E-02 2.997E-03 1.412E+05
 ETOT  8  -16.915837701970    -2.138E-01 6.930E-03 1.248E+05
 ETOT  9  -17.086284004306    -1.704E-01 1.810E-02 1.133E+05
 ETOT 10  -15.786087758956     1.300E+00 9.869E-02 1.320E+05
 ETOT 11  -16.407079613191    -6.210E-01 2.216E-02 1.032E+05
 ETOT 12  -17.757661805215    -1.351E+00 8.677E-02 3.239E+04
 ETOT 13  -17.775772892779    -1.811E-02 1.534E-01 3.839E+04
 ETOT 14  -18.230918170097    -4.551E-01 1.677E-02 1.846E+04
 ETOT 15  -18.084640233485     1.463E-01 1.745E-02 2.168E+04
 ETOT 16  -18.234621572895    -1.500E-01 7.506E-03 2.062E+04
 ETOT 17  -18.286342099203    -5.172E-02 1.168E-03 1.159E+04
 ETOT 18  -18.221458388706     6.488E-02 7.390E-03 2.523E+04
 ETOT 19  -18.350469445996    -1.290E-01 1.801E-03 9.854E+03
 ETOT 20  -18.107479689249     2.430E-01 1.193E-03 3.760E+04
 ETOT 21  -17.931986759774     1.755E-01 1.471E-02 2.193E+04
 ETOT 22  -18.199738324651    -2.678E-01 7.338E-03 2.918E+04
 ETOT 23  -18.404536717591    -2.048E-01 1.810E-03 1.134E+03
 ETOT 24  -18.168322052264     2.362E-01 6.077E-04 2.772E+04
 ETOT 25  -18.357852582131    -1.895E-01 3.792E-04 8.521E+03

 Cartesian components of stress tensor (hartree/bohr^3)
  sigma(1 1)=  4.98798103E-05  sigma(3 2)=  0.00000000E+00
  sigma(2 2)=  1.29739043E-04  sigma(3 1)=  0.00000000E+00
  sigma(3 3)=  1.97724602E-06  sigma(2 1)= -6.72083681E-05


 scprqt:  WARNING -
  nstep=   25 was not enough SCF cycles to converge;
  maximum energy difference=  1.895E-01 exceeds toldfe=  1.000E-08


--- !ResultsGS
iteration_state: {dtset: 1, }
comment   : Summary of ground state results
lattice_vectors:
- [ 22.1700000,   3.7700000,   0.0000000, ]
- [ -2.1700000,   3.7700000,   0.0000000, ]
- [  0.0000000,   0.0000000,  30.0000000, ]
lattice_lengths: [  22.48826,    4.34992,   30.00000, ]
lattice_angles: [ 90.000,  90.000, 110.274, ] # degrees, (23, 13, 12)
lattice_volume:   2.7528540E+03
convergence: {deltae: -1.895E-01, res2:  8.521E+03, residm:  3.792E-04, diffor: null, }
etotal    :  -1.83578526E+01
entropy   :   0.00000000E+00
fermie    :  -1.13626726E-01
cartesian_stress_tensor: # hartree/bohr^3
- [  4.98798103E-05,  -6.72083681E-05,   0.00000000E+00, ]
- [ -6.72083681E-05,   1.29739043E-04,   0.00000000E+00, ]
- [  0.00000000E+00,   0.00000000E+00,   1.97724602E-06, ]
pressure_GPa:  -1.7809E+00
xred      :
- [  3.3000E-01,   6.7000E-01,   2.5000E-01,  B]
- [  6.7000E-01,   3.3000E-01,   2.5000E-01,  N]
- [  6.7000E-01,   3.3000E-01,   7.5000E-01,  B]
- [  3.3000E-01,   6.7000E-01,   7.5000E-01,  B]
cartesian_forces: # hartree/bohr
- [  9.01823029E-03,   5.68083279E-03,  -0.00000000E+00, ]
- [ -9.08678998E-03,  -5.48656997E-03,  -0.00000000E+00, ]
- [ -7.87030946E-03,  -4.87643224E-03,  -0.00000000E+00, ]
- [  7.93886915E-03,   4.68216941E-03,  -0.00000000E+00, ]
force_length_stats: {min:   9.21674312E-03, max:   1.06583460E-02, mean:   9.93709714E-03, }
...

 Integrated electronic density in atomic spheres:
 ------------------------------------------------
 Atom  Sphere_radius  Integrated_density
    1        2.00000          1.78152167
    2        2.00000          4.35842468
    3        2.00000          1.60685708
    4        2.00000          1.56913503
================================================================================

 ----iterations are completed or convergence reached----

 Mean square residual over all n,k,spin=   15.692E-06; max=  37.915E-05
 reduced coordinates (array xred) for    4 atoms
       0.330000000000      0.670000000000      0.250000000000
       0.670000000000      0.330000000000      0.250000000000
       0.670000000000      0.330000000000      0.750000000000
       0.330000000000      0.670000000000      0.750000000000
 rms dE/dt=  1.2071E-01; max dE/dt=  2.0087E-01; dE/dt below (all hartree)
    1      -0.242617370339     -0.002271742376      0.000000000000
    2       0.200872037586      0.000541472032      0.000000000000
    3       0.171602445150      0.000881015547      0.000000000000
    4      -0.214922972849     -0.000848995113      0.000000000000

 cartesian coordinates (angstrom) at end:
    1      3.10214263219630     1.99499807638430     3.96882906442500
    2      7.48140153960370     1.99499807638430     3.96882906442500
    3      7.48140153960370     1.99499807638430    11.90648719327500
    4      3.10214263219630     1.99499807638430    11.90648719327500

 cartesian forces (hartree/bohr) at end:
    1      0.00901823029280     0.00568083279419    -0.00000000000000
    2     -0.00908678998313    -0.00548656996634    -0.00000000000000
    3     -0.00787030945924    -0.00487643224171    -0.00000000000000
    4      0.00793886914957     0.00468216941385    -0.00000000000000
 frms,max,avg= 5.7513930E-03 9.0867900E-03   8.563E-04  6.055E-04  0.000E+00 h/b

 cartesian forces (eV/Angstrom) at end:
    1      0.46373600799860     0.29212014292754    -0.00000000000000
    2     -0.46726148872690    -0.28213074751776    -0.00000000000000
    3     -0.40470755035550    -0.25075620688567    -0.00000000000000
    4      0.40823303108380     0.24076681147588    -0.00000000000000
 frms,max,avg= 2.9574849E-01 4.6726149E-01   4.403E-02  3.114E-02  0.000E+00 e/A
 length scales=  1.000000000000  1.000000000000  1.000000000000 bohr
              =  0.529177208590  0.529177208590  0.529177208590 angstroms
 prteigrs : about to open file Boron_Nitride_BandStructureo_DS1_EIG
 Fermi (or HOMO) energy (hartree) =  -0.11363   Average Vxc (hartree)=  -0.10255
 Eigenvalues (hartree) for nkpt=  34  k points:
 kpt#   1, nband=  8, wtk=  0.03125, kpt=  0.1250  0.0000  0.0000 (reduced coord)
  -0.60447   -0.41450   -0.41081   -0.40527   -0.18016   -0.17919   -0.17095   -0.17023
 prteigrs : prtvol=0 or 1, do not print more k-points.


--- !EnergyTerms
iteration_state     : {dtset: 1, }
comment             : Components of total free energy in Hartree
kinetic             :  1.03945307191153E+01
hartree             :  1.41045632240026E+01
xc                  : -5.72515584159176E+00
Ewald energy        : -1.65191478425422E+00
psp_core            :  7.81922068497976E-02
local_psp           : -3.56014584361485E+01
non_local_psp       :  4.33903298958051E-02
total_energy        : -1.83578525821310E+01
total_energy_eV     : -4.99542573457658E+02
band_energy         : -4.16351169291413E+00
...


 Cartesian components of stress tensor (hartree/bohr^3)
  sigma(1 1)=  4.98798103E-05  sigma(3 2)=  0.00000000E+00
  sigma(2 2)=  1.29739043E-04  sigma(3 1)=  0.00000000E+00
  sigma(3 3)=  1.97724602E-06  sigma(2 1)= -6.72083681E-05

-Cartesian components of stress tensor (GPa)         [Pressure= -1.7809E+00 GPa]
- sigma(1 1)=  1.46751444E+00  sigma(3 2)=  0.00000000E+00
- sigma(2 2)=  3.81705379E+00  sigma(3 1)=  0.00000000E+00
- sigma(3 3)=  5.81725766E-02  sigma(2 1)= -1.97733812E+00

================================================================================
== DATASET  2 ==================================================================
-   mpi_nproc: 1, omp_nthreads: -1 (-1 if OMP is not activated)


--- !DatasetInfo
iteration_state: {dtset: 2, }
dimensions: {natom: 4, nkpt: 125, mband: 8, nsppol: 1, nspinor: 1, nspden: 1, mpw: 46631, }
cutoff_energies: {ecut:  50.0, pawecutdg:  -1.0, }
electrons: {nelect:   1.40000000E+01, charge:   0.00000000E+00, occopt:   1.00000000E+00, tsmear:   1.00000000E-02, }
meta: {optdriver: 0, ionmov: 0, optcell: 0, iscf: -2, paral_kgb: 0, }
...

 mkfilename : getden/=0, take file _DEN from output of DATASET   1.

 Exchange-correlation functional for the present dataset will be:
  GGA: Perdew-Burke-Ernzerhof functional - ixc=11
 Citation for XC functional:
  J.P.Perdew, K.Burke, M.Ernzerhof, PRL 77, 3865 (1996)

 Real(R)+Recip(G) space primitive vectors, cartesian coordinates (Bohr,Bohr^-1):
 R(1)= 22.1700000  3.7700000  0.0000000  G(1)=  0.0410846  0.0236482  0.0000000
 R(2)= -2.1700000  3.7700000  0.0000000  G(2)= -0.0410846  0.2416038  0.0000000
 R(3)=  0.0000000  0.0000000 30.0000000  G(3)=  0.0000000  0.0000000  0.0333333
 Unit cell volume ucvol=  2.7528540E+03 bohr^3
 Angles (23,13,12)=  9.00000000E+01  9.00000000E+01  1.10273785E+02 degrees

 getcut: wavevector=  0.0000  0.0000  0.0000  ngfft= 144  30 192
         ecut(hartree)=     50.000   => boxcut(ratio)=   2.01062
--------------------------------------------------------------------------------


================================================================================
 prteigrs : about to open file Boron_Nitride_BandStructureo_DS2_EIG
 Non-SCF case, kpt    1 (  0.50000  0.00000  0.00000), residuals and eigenvalues=
  6.96E-13  9.79E-13  5.40E-13  7.14E-13  8.61E-13  5.54E-13  7.38E-13  1.88E-12
 -6.0639E-01 -5.6828E-01 -3.5456E-01 -3.4800E-01 -3.4660E-01 -3.1047E-01
 -3.0529E-01 -2.7714E-01
 Non-SCF case, kpt    2 (  0.45000  0.00000  0.00000), residuals and eigenvalues=
  5.64E-13  7.97E-13  5.52E-13  4.25E-13  3.61E-13  7.23E-13  5.14E-13  2.49E-12
 -6.0639E-01 -5.6828E-01 -3.5456E-01 -3.4800E-01 -3.4660E-01 -3.1047E-01
 -3.0528E-01 -2.7714E-01
 Non-SCF case, kpt    3 (  0.40000  0.00000  0.00000), residuals and eigenvalues=
  6.65E-13  8.45E-13  3.43E-13  7.18E-13  7.23E-13  4.80E-13  6.90E-13  7.76E-12
 -6.0639E-01 -5.6828E-01 -3.5458E-01 -3.4800E-01 -3.4660E-01 -3.1047E-01
 -3.0526E-01 -2.7714E-01
 Non-SCF case, kpt    4 (  0.35000  0.00000  0.00000), residuals and eigenvalues=
  7.98E-13  8.49E-13  4.08E-13  8.20E-13  6.52E-13  5.96E-13  7.49E-13  3.43E-12
 -6.0639E-01 -5.6828E-01 -3.5459E-01 -3.4800E-01 -3.4660E-01 -3.1047E-01
 -3.0522E-01 -2.7714E-01
 Non-SCF case, kpt    5 (  0.30000  0.00000  0.00000), residuals and eigenvalues=
  5.55E-13  9.42E-13  4.60E-13  8.96E-13  6.54E-13  3.97E-13  8.70E-13  1.35E-12
 -6.0639E-01 -5.6828E-01 -3.5462E-01 -3.4800E-01 -3.4660E-01 -3.1047E-01
 -3.0517E-01 -2.7714E-01
 Non-SCF case, kpt    6 (  0.25000  0.00000  0.00000), residuals and eigenvalues=
  8.50E-13  4.97E-13  7.02E-13  4.67E-13  5.89E-13  4.78E-13  5.72E-13  1.55E-12
 -6.0640E-01 -5.6828E-01 -3.5464E-01 -3.4800E-01 -3.4660E-01 -3.1047E-01
 -3.0512E-01 -2.7714E-01
 Non-SCF case, kpt    7 (  0.20000  0.00000  0.00000), residuals and eigenvalues=
  9.42E-13  9.53E-13  8.78E-13  9.83E-13  5.66E-13  4.83E-13  5.28E-13  5.97E-13
 -6.0640E-01 -5.6828E-01 -3.5466E-01 -3.4800E-01 -3.4660E-01 -3.1047E-01
 -3.0507E-01 -2.7714E-01
 Non-SCF case, kpt    8 (  0.15000  0.00000  0.00000), residuals and eigenvalues=
  7.39E-13  8.83E-13  8.38E-13  8.13E-13  9.22E-13  5.09E-13  4.42E-13  3.82E-12
 -6.0640E-01 -5.6828E-01 -3.5469E-01 -3.4800E-01 -3.4660E-01 -3.1047E-01
 -3.0502E-01 -2.7714E-01
 Non-SCF case, kpt    9 (  0.10000  0.00000  0.00000), residuals and eigenvalues=
  6.00E-13  6.38E-13  8.22E-13  9.54E-13  3.53E-13  9.73E-13  5.69E-13  7.88E-12
 -6.0640E-01 -5.6828E-01 -3.5470E-01 -3.4800E-01 -3.4660E-01 -3.1047E-01
 -3.0499E-01 -2.7714E-01
 Non-SCF case, kpt   10 (  0.05000  0.00000  0.00000), residuals and eigenvalues=
  6.18E-13  9.81E-13  7.54E-13  4.97E-13  7.49E-13  8.76E-13  4.29E-13  1.71E-12
 -6.0640E-01 -5.6828E-01 -3.5471E-01 -3.4800E-01 -3.4660E-01 -3.1046E-01
 -3.0496E-01 -2.7714E-01
 Non-SCF case, kpt   11 (  0.00000  0.00000  0.00000), residuals and eigenvalues=
  9.79E-13  8.84E-13  8.98E-13  7.84E-13  8.64E-13  8.02E-13  6.33E-13  2.64E-12
 -6.0640E-01 -5.6828E-01 -3.5472E-01 -3.4800E-01 -3.4660E-01 -3.1046E-01
 -3.0495E-01 -2.7714E-01
 Non-SCF case, kpt   12 (  0.00000  0.00962  0.00962), residuals and eigenvalues=
  9.25E-13  4.92E-13  5.61E-13  7.99E-13  6.07E-13  7.57E-13  9.90E-13  3.21E-12
 -6.0632E-01 -5.6821E-01 -3.5464E-01 -3.4794E-01 -3.4653E-01 -3.1039E-01
 -3.0488E-01 -2.7706E-01
 Non-SCF case, kpt   13 (  0.00000  0.01923  0.01923), residuals and eigenvalues=
  6.77E-13  7.82E-13  7.30E-13  5.04E-13  8.85E-13  7.92E-13  7.73E-13  9.73E-13
 -6.0611E-01 -5.6799E-01 -3.5440E-01 -3.4776E-01 -3.4630E-01 -3.1016E-01
 -3.0466E-01 -2.7684E-01
 Non-SCF case, kpt   14 (  0.00000  0.02885  0.02885), residuals and eigenvalues=
  8.67E-13  7.03E-13  4.91E-13  7.38E-13  8.05E-13  6.78E-13  6.94E-13  1.56E-12
 -6.0575E-01 -5.6763E-01 -3.5401E-01 -3.4746E-01 -3.4591E-01 -3.0977E-01
 -3.0429E-01 -2.7647E-01
 Non-SCF case, kpt   15 (  0.00000  0.03846  0.03846), residuals and eigenvalues=
  9.81E-13  7.49E-13  8.91E-13  4.96E-13  5.36E-13  4.89E-13  7.53E-13  2.23E-12
 -6.0525E-01 -5.6713E-01 -3.5347E-01 -3.4704E-01 -3.4538E-01 -3.0924E-01
 -3.0378E-01 -2.7594E-01
 Non-SCF case, kpt   16 (  0.00000  0.04808  0.04808), residuals and eigenvalues=
  8.30E-13  9.95E-13  9.34E-13  8.66E-13  4.60E-13  8.08E-13  6.78E-13  1.76E-11
 -6.0460E-01 -5.6648E-01 -3.5276E-01 -3.4650E-01 -3.4469E-01 -3.0855E-01
 -3.0311E-01 -2.7527E-01
 Non-SCF case, kpt   17 (  0.00000  0.05769  0.05769), residuals and eigenvalues=
  5.14E-13  8.80E-13  5.63E-13  6.13E-13  8.56E-13  4.27E-13  4.42E-13  1.79E-12
 -6.0381E-01 -5.6569E-01 -3.5191E-01 -3.4585E-01 -3.4385E-01 -3.0770E-01
 -3.0231E-01 -2.7445E-01
 Non-SCF case, kpt   18 (  0.00000  0.06731  0.06731), residuals and eigenvalues=
  6.49E-13  8.13E-13  8.68E-13  7.12E-13  9.04E-13  9.59E-13  3.91E-13  5.53E-12
 -6.0287E-01 -5.6475E-01 -3.5090E-01 -3.4508E-01 -3.4286E-01 -3.0671E-01
 -3.0135E-01 -2.7348E-01
 Non-SCF case, kpt   19 (  0.00000  0.07692  0.07692), residuals and eigenvalues=
  8.78E-13  6.61E-13  6.24E-13  6.75E-13  8.28E-13  9.05E-13  7.89E-13  3.39E-12
 -6.0180E-01 -5.6367E-01 -3.4973E-01 -3.4419E-01 -3.4173E-01 -3.0556E-01
 -3.0025E-01 -2.7236E-01
 Non-SCF case, kpt   20 (  0.00000  0.08654  0.08654), residuals and eigenvalues=
  5.15E-13  5.59E-13  7.21E-13  3.72E-13  6.34E-13  9.40E-13  7.61E-13  7.36E-12
 -6.0058E-01 -5.6244E-01 -3.4841E-01 -3.4319E-01 -3.4044E-01 -3.0427E-01
 -2.9901E-01 -2.7110E-01
 Non-SCF case, kpt   21 (  0.00000  0.09615  0.09615), residuals and eigenvalues=
  9.38E-13  8.56E-13  4.95E-13  8.33E-13  5.57E-13  6.54E-13  3.81E-13  1.37E-11
 -5.9921E-01 -5.6108E-01 -3.4695E-01 -3.4207E-01 -3.3900E-01 -3.0283E-01
 -2.9762E-01 -2.6968E-01
 Non-SCF case, kpt   22 (  0.00000  0.10577  0.10577), residuals and eigenvalues=
  9.74E-13  8.38E-13  6.65E-13  7.64E-13  4.97E-13  9.93E-13  2.76E-13  3.82E-12
 -5.9771E-01 -5.5957E-01 -3.4533E-01 -3.4084E-01 -3.3742E-01 -3.0124E-01
 -2.9610E-01 -2.6812E-01
 Non-SCF case, kpt   23 (  0.00000  0.11538  0.11538), residuals and eigenvalues=
  9.45E-13  8.43E-13  2.67E-13  5.02E-13  5.03E-13  4.85E-13  8.73E-13  1.95E-12
 -5.9606E-01 -5.5791E-01 -3.4357E-01 -3.3949E-01 -3.3570E-01 -2.9950E-01
 -2.9443E-01 -2.6640E-01
 Non-SCF case, kpt   24 (  0.00000  0.12500  0.12500), residuals and eigenvalues=
  8.16E-13  9.19E-13  8.29E-13  5.24E-13  3.61E-13  4.61E-13  8.18E-13  1.31E-11
 -5.9427E-01 -5.5611E-01 -3.4165E-01 -3.3804E-01 -3.3383E-01 -2.9762E-01
 -2.9262E-01 -2.6454E-01
 Non-SCF case, kpt   25 (  0.00000  0.13462  0.13462), residuals and eigenvalues=
  6.98E-13  6.94E-13  7.11E-13  4.97E-13  2.59E-13  7.28E-13  7.50E-13  7.38E-12
 -5.9233E-01 -5.5417E-01 -3.3960E-01 -3.3648E-01 -3.3182E-01 -2.9560E-01
 -2.9068E-01 -2.6253E-01
 Non-SCF case, kpt   26 (  0.00000  0.14423  0.14423), residuals and eigenvalues=
  4.93E-13  6.44E-13  8.42E-13  6.99E-13  5.52E-13  6.76E-13  6.24E-13  1.01E-11
 -5.9026E-01 -5.5209E-01 -3.3740E-01 -3.3481E-01 -3.2967E-01 -2.9344E-01
 -2.8860E-01 -2.6038E-01
 Non-SCF case, kpt   27 (  0.00000  0.15385  0.15385), residuals and eigenvalues=
  6.81E-13  7.95E-13  5.76E-13  9.34E-13  6.57E-13  7.87E-13  5.97E-13  3.99E-12
 -5.8804E-01 -5.4986E-01 -3.3507E-01 -3.3303E-01 -3.2738E-01 -2.9114E-01
 -2.8639E-01 -2.5807E-01
 Non-SCF case, kpt   28 (  0.00000  0.16346  0.16346), residuals and eigenvalues=
  9.41E-13  8.80E-13  5.86E-13  9.90E-13  7.64E-13  7.82E-13  1.00E-12  2.68E-11
 -5.8568E-01 -5.4750E-01 -3.3260E-01 -3.3116E-01 -3.2497E-01 -2.8870E-01
 -2.8405E-01 -2.5562E-01
 Non-SCF case, kpt   29 (  0.00000  0.17308  0.17308), residuals and eigenvalues=
  5.32E-13  4.99E-13  4.98E-13  3.80E-13  8.99E-13  7.77E-13  8.25E-13  4.06E-11
 -5.8318E-01 -5.4499E-01 -3.2999E-01 -3.2918E-01 -3.2242E-01 -2.8614E-01
 -2.8158E-01 -2.5302E-01
 Non-SCF case, kpt   30 (  0.00000  0.18269  0.18269), residuals and eigenvalues=
  7.83E-13  9.77E-13  6.92E-13  5.46E-13  3.37E-13  3.06E-13  8.78E-13  5.07E-10
 -5.8053E-01 -5.4234E-01 -3.2725E-01 -3.2711E-01 -3.1974E-01 -2.8344E-01
 -2.7899E-01 -2.5028E-01
 Non-SCF case, kpt   31 (  0.00000  0.19231  0.19231), residuals and eigenvalues=
  6.65E-13  8.09E-13  7.39E-13  8.19E-13  5.88E-13  5.99E-13  9.28E-13  4.73E-10
 -5.7775E-01 -5.3954E-01 -3.2495E-01 -3.2439E-01 -3.1694E-01 -2.8062E-01
 -2.7628E-01 -2.4739E-01
 Non-SCF case, kpt   32 (  0.00000  0.20192  0.20192), residuals and eigenvalues=
  7.80E-13  6.82E-13  9.72E-13  8.55E-13  6.80E-13  8.83E-13  5.58E-13  2.82E-10
 -5.7483E-01 -5.3661E-01 -3.2270E-01 -3.2141E-01 -3.1402E-01 -2.7768E-01
 -2.7345E-01 -2.4435E-01
 Non-SCF case, kpt   33 (  0.00000  0.21154  0.21154), residuals and eigenvalues=
  7.37E-13  7.88E-13  4.85E-13  8.07E-13  8.72E-13  5.18E-13  1.00E-12  4.08E-09
 -5.7177E-01 -5.3354E-01 -3.2036E-01 -3.1830E-01 -3.1099E-01 -2.7463E-01
 -2.7051E-01 -2.4116E-01
 Non-SCF case, kpt   34 (  0.00000  0.22115  0.22115), residuals and eigenvalues=
  6.75E-13  9.76E-13  9.01E-13  7.53E-13  8.68E-13  8.16E-13  7.23E-13  4.92E-09
 -5.6857E-01 -5.3033E-01 -3.1794E-01 -3.1509E-01 -3.0784E-01 -2.7146E-01
 -2.6746E-01 -2.3783E-01
 Non-SCF case, kpt   35 (  0.00000  0.23077  0.23077), residuals and eigenvalues=
  8.45E-13  5.64E-13  6.51E-13  8.51E-13  8.07E-13  8.74E-13  1.78E-12  2.41E-09
 -5.6523E-01 -5.2697E-01 -3.1544E-01 -3.1176E-01 -3.0459E-01 -2.6818E-01
 -2.6432E-01 -2.3436E-01
 Non-SCF case, kpt   36 (  0.00000  0.24038  0.24038), residuals and eigenvalues=
  7.52E-13  4.31E-13  1.60E-13  9.23E-13  9.35E-13  4.95E-13  9.33E-13  5.06E-09
 -5.6175E-01 -5.2348E-01 -3.1287E-01 -3.0834E-01 -3.0124E-01 -2.6480E-01
 -2.6108E-01 -2.3074E-01
 Non-SCF case, kpt   37 (  0.00000  0.25000  0.25000), residuals and eigenvalues=
  4.57E-13  6.90E-13  6.60E-13  3.32E-13  8.38E-13  5.65E-13  1.46E-12  2.78E-09
 -5.5813E-01 -5.1985E-01 -3.1024E-01 -3.0482E-01 -2.9780E-01 -2.6133E-01
 -2.5776E-01 -2.2698E-01
 Non-SCF case, kpt   38 (  0.00000  0.25962  0.25962), residuals and eigenvalues=
  2.66E-13  4.98E-13  9.51E-13  9.08E-13  7.43E-13  7.36E-13  7.41E-13  1.60E-07
 -5.5438E-01 -5.1608E-01 -3.0754E-01 -3.0122E-01 -2.9427E-01 -2.5777E-01
 -2.5437E-01 -2.2307E-01
 Non-SCF case, kpt   39 (  0.00000  0.26923  0.26923), residuals and eigenvalues=
  4.67E-13  2.38E-13  9.58E-13  4.30E-13  6.67E-13  9.36E-13  2.14E-12  1.29E-06
 -5.5049E-01 -5.1218E-01 -3.0479E-01 -2.9754E-01 -2.9067E-01 -2.5413E-01
 -2.5094E-01 -2.1900E-01
 Non-SCF case, kpt   40 (  0.00000  0.27885  0.27885), residuals and eigenvalues=
  5.64E-13  8.64E-13  9.06E-13  8.95E-13  9.30E-13  8.26E-13  1.30E-12  4.78E-06
 -5.4646E-01 -5.0813E-01 -3.0200E-01 -2.9379E-01 -2.8700E-01 -2.5043E-01
 -2.4750E-01 -2.2520E-01
 Non-SCF case, kpt   41 (  0.00000  0.28846  0.28846), residuals and eigenvalues=
  7.71E-13  9.12E-13  4.28E-13  9.34E-13  6.76E-13  7.40E-13  8.95E-12  1.72E-09
 -5.4230E-01 -5.0395E-01 -2.9916E-01 -2.9000E-01 -2.8327E-01 -2.4666E-01
 -2.4433E-01 -2.3373E-01
 Non-SCF case, kpt   42 (  0.00000  0.29808  0.29808), residuals and eigenvalues=
  5.00E-13  9.52E-13  4.14E-13  5.96E-13  9.75E-13  9.88E-13  5.18E-13  7.95E-13
 -5.3801E-01 -4.9964E-01 -2.9630E-01 -2.8618E-01 -2.7949E-01 -2.4495E-01
 -2.4284E-01 -2.3833E-01
 Non-SCF case, kpt   43 (  0.00000  0.30769  0.30769), residuals and eigenvalues=
  5.19E-13  5.13E-13  5.01E-13  6.83E-13  6.86E-13  7.07E-13  4.73E-11  4.12E-10
 -5.3358E-01 -4.9519E-01 -2.9342E-01 -2.8236E-01 -2.7568E-01 -2.5268E-01
 -2.3898E-01 -2.3574E-01
 Non-SCF case, kpt   44 (  0.00000  0.31731  0.31731), residuals and eigenvalues=
  5.53E-13  5.12E-13  3.90E-13  9.04E-13  5.66E-13  6.36E-13  1.47E-07  4.18E-06
 -5.2902E-01 -4.9061E-01 -2.9053E-01 -2.7864E-01 -2.7184E-01 -2.6111E-01
 -2.3509E-01 -2.3230E-01
 Non-SCF case, kpt   45 (  0.00000  0.32692  0.32692), residuals and eigenvalues=
  8.73E-13  9.07E-13  7.75E-13  9.79E-13  8.37E-13  5.54E-13  2.25E-07  1.27E-05
 -5.2433E-01 -4.8590E-01 -2.8763E-01 -2.7574E-01 -2.6882E-01 -2.6800E-01
 -2.3119E-01 -2.3084E-01
 Non-SCF case, kpt   46 (  0.00000  0.33654  0.33654), residuals and eigenvalues=
  9.35E-13  6.74E-13  7.72E-13  8.87E-13  7.61E-13  7.28E-13  1.04E-07  2.50E-05
 -5.1951E-01 -4.8106E-01 -2.8476E-01 -2.7978E-01 -2.6963E-01 -2.6416E-01
 -2.3887E-01 -2.2659E-01
 Non-SCF case, kpt   47 (  0.00000  0.34615  0.34615), residuals and eigenvalues=
  5.93E-13  4.67E-13  8.13E-13  9.95E-13  9.29E-13  9.53E-13  6.61E-10  5.45E-06
 -5.1456E-01 -4.7609E-01 -2.8792E-01 -2.8190E-01 -2.6652E-01 -2.6034E-01
 -2.4710E-01 -2.2332E-01
 Non-SCF case, kpt   48 (  0.00000  0.35577  0.35577), residuals and eigenvalues=
  5.47E-13  3.06E-13  8.31E-13  5.32E-13  9.36E-13  7.61E-13  5.94E-13  2.70E-06
 -5.0949E-01 -4.7099E-01 -2.9632E-01 -2.7909E-01 -2.6414E-01 -2.5657E-01
 -2.5428E-01 -2.1949E-01
 Non-SCF case, kpt   49 (  0.00000  0.36538  0.36538), residuals and eigenvalues=
  6.43E-13  6.60E-13  9.96E-13  9.14E-13  9.84E-13  6.25E-13  5.82E-13  5.66E-06
 -5.0430E-01 -4.6577E-01 -3.0472E-01 -2.7634E-01 -2.6711E-01 -2.5603E-01
 -2.5286E-01 -2.1572E-01
 Non-SCF case, kpt   50 (  0.00000  0.37500  0.37500), residuals and eigenvalues=
  7.05E-13  8.85E-13  6.09E-13  9.41E-13  4.16E-13  7.54E-13  1.20E-11  1.77E-05
 -4.9898E-01 -4.6042E-01 -3.1306E-01 -2.7447E-01 -2.7366E-01 -2.5336E-01
 -2.4924E-01 -2.1152E-01
 Non-SCF case, kpt   51 (  0.00000  0.38462  0.38462), residuals and eigenvalues=
  8.35E-13  4.38E-13  7.68E-13  4.98E-13  7.88E-13  7.12E-13  1.55E-12  5.15E-06
 -4.9355E-01 -4.5496E-01 -3.2131E-01 -2.8249E-01 -2.7106E-01 -2.5003E-01
 -2.4573E-01 -2.0736E-01
 Non-SCF case, kpt   52 (  0.00000  0.39423  0.39423), residuals and eigenvalues=
  9.66E-13  5.67E-13  7.05E-13  4.21E-13  8.63E-13  6.14E-13  6.85E-13  3.71E-06
 -4.8801E-01 -4.4938E-01 -3.2947E-01 -2.9058E-01 -2.6858E-01 -2.4665E-01
 -2.4235E-01 -2.0465E-01
 Non-SCF case, kpt   53 (  0.00000  0.40385  0.40385), residuals and eigenvalues=
  9.71E-13  6.68E-13  6.11E-13  7.46E-13  6.40E-13  9.86E-13  2.14E-12  6.50E-06
 -4.8236E-01 -4.4370E-01 -3.3752E-01 -2.9861E-01 -2.6622E-01 -2.4337E-01
 -2.3913E-01 -2.0126E-01
 Non-SCF case, kpt   54 (  0.00000  0.41346  0.41346), residuals and eigenvalues=
  7.63E-13  8.17E-13  9.73E-13  7.29E-13  7.46E-13  8.69E-13  6.62E-13  2.09E-06
 -4.7662E-01 -4.3791E-01 -3.4544E-01 -3.0655E-01 -2.6401E-01 -2.4025E-01
 -2.3609E-01 -1.9860E-01
 Non-SCF case, kpt   55 (  0.00000  0.42308  0.42308), residuals and eigenvalues=
  9.49E-13  9.93E-13  9.04E-13  4.80E-13  8.64E-13  8.86E-13  9.87E-13  1.49E-06
 -4.7079E-01 -4.3204E-01 -3.5322E-01 -3.1437E-01 -2.6196E-01 -2.3733E-01
 -2.3328E-01 -1.9571E-01
 Non-SCF case, kpt   56 (  0.00000  0.43269  0.43269), residuals and eigenvalues=
  4.36E-13  9.13E-13  9.64E-13  8.93E-13  9.12E-13  9.93E-13  6.29E-11  1.82E-06
 -4.6489E-01 -4.2610E-01 -3.6085E-01 -3.2205E-01 -2.6009E-01 -2.3465E-01
 -2.3071E-01 -1.9259E-01
 Non-SCF case, kpt   57 (  0.00000  0.44231  0.44231), residuals and eigenvalues=
  5.00E-13  2.73E-13  6.69E-13  8.67E-13  4.96E-13  9.84E-13  1.32E-11  1.22E-06
 -4.5896E-01 -4.2011E-01 -3.6828E-01 -3.2954E-01 -2.5843E-01 -2.3225E-01
 -2.2841E-01 -1.9064E-01
 Non-SCF case, kpt   58 (  0.00000  0.45192  0.45192), residuals and eigenvalues=
  3.33E-13  2.11E-13  6.73E-13  2.85E-13  7.58E-13  8.59E-13  3.11E-12  1.20E-06
 -4.5305E-01 -4.1413E-01 -3.7547E-01 -3.3681E-01 -2.5699E-01 -2.3016E-01
 -2.2641E-01 -1.8863E-01
 Non-SCF case, kpt   59 (  0.00000  0.46154  0.46154), residuals and eigenvalues=
  3.17E-13  7.25E-13  9.48E-13  7.01E-13  3.76E-13  9.54E-13  4.43E-12  5.48E-07
 -4.4722E-01 -4.0823E-01 -3.8233E-01 -3.4376E-01 -2.5578E-01 -2.2840E-01
 -2.2473E-01 -1.8704E-01
 Non-SCF case, kpt   60 (  0.00000  0.47115  0.47115), residuals and eigenvalues=
  9.49E-13  5.00E-13  7.05E-13  3.76E-13  5.85E-13  5.83E-13  2.95E-12  6.18E-07
 -4.4165E-01 -4.0257E-01 -3.8869E-01 -3.5026E-01 -2.5483E-01 -2.2701E-01
 -2.2341E-01 -1.8545E-01
 Non-SCF case, kpt   61 (  0.00000  0.48077  0.48077), residuals and eigenvalues=
  6.31E-13  3.38E-13  7.82E-13  6.57E-13  5.86E-13  8.41E-13  2.39E-12  1.57E-07
 -4.3666E-01 -3.9762E-01 -3.9409E-01 -3.5597E-01 -2.5414E-01 -2.2599E-01
 -2.2245E-01 -1.8476E-01
 Non-SCF case, kpt   62 (  0.00000  0.49038  0.49038), residuals and eigenvalues=
  8.28E-13  7.35E-13  9.06E-13  8.45E-13  6.16E-13  8.19E-13  7.97E-13  5.44E-07
 -4.3290E-01 -3.9859E-01 -3.9332E-01 -3.6023E-01 -2.5373E-01 -2.2538E-01
 -2.2186E-01 -1.8399E-01
 Non-SCF case, kpt   63 (  0.00000  0.50000  0.50000), residuals and eigenvalues=
  7.56E-13  3.71E-13  8.07E-13  6.97E-13  4.40E-13  7.66E-13  2.94E-11  1.97E-07
 -4.3142E-01 -4.0012E-01 -3.9183E-01 -3.6190E-01 -2.5359E-01 -2.2517E-01
 -2.2167E-01 -1.8366E-01
 Non-SCF case, kpt   64 (  0.01613  0.50806  0.50806), residuals and eigenvalues=
  7.86E-13  2.50E-13  5.14E-13  7.18E-13  6.72E-13  5.65E-13  4.89E-12  2.72E-07
 -4.3247E-01 -3.9902E-01 -3.9290E-01 -3.6071E-01 -2.5368E-01 -2.2532E-01
 -2.2181E-01 -1.8376E-01
 Non-SCF case, kpt   65 (  0.03226  0.51613  0.51613), residuals and eigenvalues=
  6.40E-13  7.69E-13  7.75E-13  3.25E-13  8.33E-13  8.14E-13  5.75E-13  2.20E-07
 -4.3526E-01 -3.9678E-01 -3.9501E-01 -3.5755E-01 -2.5398E-01 -2.2575E-01
 -2.2222E-01 -1.8452E-01
 Non-SCF case, kpt   66 (  0.04839  0.52419  0.52419), residuals and eigenvalues=
  9.12E-13  2.34E-13  7.54E-13  3.42E-13  6.75E-13  8.94E-13  2.42E-12  5.65E-07
 -4.3913E-01 -4.0003E-01 -3.9148E-01 -3.5315E-01 -2.5447E-01 -2.2646E-01
 -2.2290E-01 -1.8502E-01
 Non-SCF case, kpt   67 (  0.06452  0.53226  0.53226), residuals and eigenvalues=
  7.46E-13  2.37E-13  5.93E-13  7.93E-13  7.78E-13  5.52E-13  2.09E-12  1.87E-07
 -4.4358E-01 -4.0453E-01 -3.8651E-01 -3.4802E-01 -2.5514E-01 -2.2745E-01
 -2.2384E-01 -1.8572E-01
 Non-SCF case, kpt   68 (  0.08065  0.54032  0.54032), residuals and eigenvalues=
  9.90E-13  5.35E-13  7.97E-13  4.17E-13  5.27E-13  9.08E-13  1.06E-11  3.49E-07
 -4.4833E-01 -4.0936E-01 -3.8103E-01 -3.4245E-01 -2.5600E-01 -2.2871E-01
 -2.2503E-01 -1.8737E-01
 Non-SCF case, kpt   69 (  0.09677  0.54839  0.54839), residuals and eigenvalues=
  5.34E-13  2.65E-13  3.36E-13  7.62E-13  7.83E-13  6.89E-13  5.64E-13  6.76E-07
 -4.5324E-01 -4.1432E-01 -3.7524E-01 -3.3658E-01 -2.5703E-01 -2.3021E-01
 -2.2647E-01 -1.8872E-01
 Non-SCF case, kpt   70 (  0.11290  0.55645  0.55645), residuals and eigenvalues=
  5.07E-13  5.98E-13  4.43E-13  8.87E-13  9.81E-13  5.85E-13  8.55E-13  1.47E-06
 -4.5820E-01 -4.1934E-01 -3.6922E-01 -3.3049E-01 -2.5823E-01 -2.3195E-01
 -2.2813E-01 -1.9034E-01
 Non-SCF case, kpt   71 (  0.12903  0.56452  0.56452), residuals and eigenvalues=
  5.42E-13  8.86E-13  7.46E-13  6.46E-13  6.87E-13  9.60E-13  9.07E-13  9.96E-08
 -4.6318E-01 -4.2436E-01 -3.6303E-01 -3.2424E-01 -2.5959E-01 -2.3391E-01
 -2.3001E-01 -1.9253E-01
 Non-SCF case, kpt   72 (  0.14516  0.57258  0.57258), residuals and eigenvalues=
  3.38E-13  3.53E-13  4.77E-13  9.88E-13  9.19E-13  7.68E-13  7.19E-13  1.62E-06
 -4.6813E-01 -4.2936E-01 -3.5669E-01 -3.1786E-01 -2.6109E-01 -2.3607E-01
 -2.3208E-01 -1.9432E-01
 Non-SCF case, kpt   73 (  0.16129  0.58065  0.58065), residuals and eigenvalues=
  8.83E-13  8.41E-13  7.96E-13  5.64E-13  3.67E-13  7.18E-13  6.36E-12  1.28E-07
 -4.7305E-01 -4.3432E-01 -3.5023E-01 -3.1136E-01 -2.6273E-01 -2.3842E-01
 -2.3434E-01 -1.9696E-01
 Non-SCF case, kpt   74 (  0.17742  0.58871  0.58871), residuals and eigenvalues=
  9.79E-13  7.47E-13  4.97E-13  7.84E-13  8.18E-13  7.01E-13  3.21E-12  3.99E-06
 -4.7792E-01 -4.3923E-01 -3.4366E-01 -3.0477E-01 -2.6449E-01 -2.4092E-01
 -2.3676E-01 -1.9898E-01
 Non-SCF case, kpt   75 (  0.19355  0.59677  0.59677), residuals and eigenvalues=
  8.65E-13  8.94E-13  4.59E-13  5.02E-13  7.79E-13  6.39E-13  1.28E-12  7.99E-07
 -4.8273E-01 -4.4407E-01 -3.3700E-01 -2.9810E-01 -2.6637E-01 -2.4356E-01
 -2.3933E-01 -2.0201E-01
 Non-SCF case, kpt   76 (  0.20968  0.60484  0.60484), residuals and eigenvalues=
  3.03E-13  4.58E-13  6.12E-13  6.12E-13  6.68E-13  6.09E-13  2.29E-11  3.63E-06
 -4.8747E-01 -4.4884E-01 -3.3025E-01 -2.9136E-01 -2.6835E-01 -2.4631E-01
 -2.4203E-01 -2.0460E-01
 Non-SCF case, kpt   77 (  0.22581  0.61290  0.61290), residuals and eigenvalues=
  5.96E-13  9.91E-13  7.32E-13  5.58E-13  8.89E-13  9.38E-13  1.27E-11  5.26E-06
 -4.9213E-01 -4.5353E-01 -3.2343E-01 -2.8458E-01 -2.7041E-01 -2.4913E-01
 -2.4484E-01 -2.0715E-01
 Non-SCF case, kpt   78 (  0.24194  0.62097  0.62097), residuals and eigenvalues=
  5.12E-13  6.54E-13  5.47E-13  8.67E-13  9.42E-13  6.00E-13  1.09E-11  1.80E-06
 -4.9672E-01 -4.5815E-01 -3.1653E-01 -2.7781E-01 -2.7256E-01 -2.5197E-01
 -2.4775E-01 -2.1054E-01
 Non-SCF case, kpt   79 (  0.25806  0.62903  0.62903), residuals and eigenvalues=
  6.61E-13  3.04E-13  6.01E-13  6.03E-13  6.99E-13  6.44E-13  2.69E-12  1.84E-06
 -5.0123E-01 -4.6268E-01 -3.0957E-01 -2.7477E-01 -2.7122E-01 -2.5463E-01
 -2.5075E-01 -2.1355E-01
 Non-SCF case, kpt   80 (  0.27419  0.63710  0.63710), residuals and eigenvalues=
  6.92E-13  8.80E-13  9.23E-13  4.17E-13  7.79E-13  9.57E-13  5.91E-13  3.88E-06
 -5.0565E-01 -4.6713E-01 -3.0256E-01 -2.7704E-01 -2.6563E-01 -2.5629E-01
 -2.5381E-01 -2.1658E-01
 Non-SCF case, kpt   81 (  0.29032  0.64516  0.64516), residuals and eigenvalues=
  8.83E-13  8.80E-13  6.21E-13  8.39E-13  9.79E-13  7.89E-13  7.82E-13  2.66E-06
 -5.0999E-01 -4.7149E-01 -2.9551E-01 -2.7936E-01 -2.6425E-01 -2.5693E-01
 -2.5371E-01 -2.1993E-01
 Non-SCF case, kpt   82 (  0.30645  0.65323  0.65323), residuals and eigenvalues=
  7.26E-13  7.95E-13  5.45E-13  8.46E-13  4.74E-13  5.39E-13  1.65E-12  6.77E-06
 -5.1424E-01 -4.7576E-01 -2.8846E-01 -2.8172E-01 -2.6633E-01 -2.6010E-01
 -2.4762E-01 -2.2102E-01
 Non-SCF case, kpt   83 (  0.32258  0.66129  0.66129), residuals and eigenvalues=
  4.74E-13  6.93E-13  4.71E-13  5.90E-13  9.90E-13  7.50E-13  5.89E-10  4.74E-07
 -5.1840E-01 -4.7995E-01 -2.8411E-01 -2.8155E-01 -2.6899E-01 -2.6329E-01
 -2.4075E-01 -2.2642E-01
 Non-SCF case, kpt   84 (  0.33871  0.66935  0.66935), residuals and eigenvalues=
  9.69E-13  2.46E-13  5.89E-13  6.75E-13  8.67E-13  6.97E-13  1.28E-05  1.85E-05
 -5.2248E-01 -4.8404E-01 -2.8652E-01 -2.7607E-01 -2.7039E-01 -2.6651E-01
 -2.3362E-01 -2.2948E-01
 Non-SCF case, kpt   85 (  0.35484  0.67742  0.67742), residuals and eigenvalues=
  8.70E-13  5.64E-13  6.10E-13  8.23E-13  6.63E-13  7.82E-13  3.01E-07  1.49E-05
 -5.2646E-01 -4.8804E-01 -2.8894E-01 -2.7684E-01 -2.6973E-01 -2.6559E-01
 -2.3296E-01 -2.3046E-01
 Non-SCF case, kpt   86 (  0.37097  0.68548  0.68548), residuals and eigenvalues=
  7.34E-13  7.01E-13  9.00E-13  8.11E-13  4.72E-13  4.02E-13  4.28E-09  4.82E-08
 -5.3036E-01 -4.9196E-01 -2.9137E-01 -2.7975E-01 -2.7296E-01 -2.5867E-01
 -2.3622E-01 -2.3323E-01
 Non-SCF case, kpt   87 (  0.38710  0.69355  0.69355), residuals and eigenvalues=
  4.98E-13  4.98E-13  5.48E-13  3.99E-13  5.48E-13  6.38E-13  1.43E-11  2.46E-11
 -5.3416E-01 -4.9577E-01 -2.9379E-01 -2.8291E-01 -2.7617E-01 -2.5159E-01
 -2.3948E-01 -2.3605E-01
 Non-SCF case, kpt   88 (  0.40323  0.70161  0.70161), residuals and eigenvalues=
  7.85E-13  7.88E-13  4.51E-13  8.99E-13  4.43E-13  9.69E-13  7.96E-13  7.20E-13
 -5.3787E-01 -4.9950E-01 -2.9621E-01 -2.8613E-01 -2.7937E-01 -2.4509E-01
 -2.4271E-01 -2.3822E-01
 Non-SCF case, kpt   89 (  0.41935  0.70968  0.70968), residuals and eigenvalues=
  9.36E-13  3.51E-13  7.64E-13  8.88E-13  8.47E-13  7.63E-13  2.16E-12  2.38E-11
 -5.4148E-01 -5.0313E-01 -2.9861E-01 -2.8935E-01 -2.8254E-01 -2.4592E-01
 -2.4368E-01 -2.3523E-01
 Non-SCF case, kpt   90 (  0.43548  0.71774  0.71774), residuals and eigenvalues=
  7.62E-13  8.11E-13  9.44E-13  9.11E-13  4.52E-13  5.07E-13  9.69E-13  6.66E-07
 -5.4500E-01 -5.0666E-01 -3.0100E-01 -2.9255E-01 -2.8568E-01 -2.4909E-01
 -2.4612E-01 -2.2834E-01
 Non-SCF case, kpt   91 (  0.45161  0.72581  0.72581), residuals and eigenvalues=
  6.67E-13  2.58E-13  3.81E-13  7.92E-13  9.37E-13  8.29E-13  5.44E-11  3.58E-06
 -5.4843E-01 -5.1010E-01 -3.0336E-01 -2.9572E-01 -2.8879E-01 -2.5222E-01
 -2.4895E-01 -2.2096E-01
 Non-SCF case, kpt   92 (  0.46774  0.73387  0.73387), residuals and eigenvalues=
  5.02E-13  2.47E-13  7.20E-13  5.20E-13  9.74E-13  8.22E-13  1.33E-12  2.38E-06
 -5.5176E-01 -5.1345E-01 -3.0568E-01 -2.9884E-01 -2.9184E-01 -2.5531E-01
 -2.5183E-01 -2.2032E-01
 Non-SCF case, kpt   93 (  0.48387  0.74194  0.74194), residuals and eigenvalues=
  5.67E-13  3.42E-13  7.62E-13  7.80E-13  7.96E-13  8.28E-13  7.51E-12  6.00E-08
 -5.5499E-01 -5.1670E-01 -3.0798E-01 -3.0191E-01 -2.9485E-01 -2.5835E-01
 -2.5470E-01 -2.2371E-01
 Non-SCF case, kpt   94 (  0.50000  0.75000  0.75000), residuals and eigenvalues=
  3.38E-13  9.04E-13  6.54E-13  6.46E-13  7.21E-13  8.79E-13  7.39E-13  7.73E-09
 -5.5813E-01 -5.1985E-01 -3.1024E-01 -3.0493E-01 -2.9780E-01 -2.6133E-01
 -2.5754E-01 -2.2698E-01
 Non-SCF case, kpt   95 (  0.51613  0.75806  0.75806), residuals and eigenvalues=
  7.17E-13  2.80E-13  5.08E-13  8.83E-13  7.12E-13  5.40E-13  3.26E-12  6.18E-09
 -5.6117E-01 -5.2290E-01 -3.1245E-01 -3.0788E-01 -3.0069E-01 -2.6424E-01
 -2.6034E-01 -2.3014E-01
 Non-SCF case, kpt   96 (  0.53226  0.76613  0.76613), residuals and eigenvalues=
  7.80E-13  9.85E-13  4.34E-13  8.72E-13  7.48E-13  9.43E-13  5.44E-13  9.73E-10
 -5.6412E-01 -5.2586E-01 -3.1462E-01 -3.1077E-01 -3.0352E-01 -2.6710E-01
 -2.6309E-01 -2.3321E-01
 Non-SCF case, kpt   97 (  0.54839  0.77419  0.77419), residuals and eigenvalues=
  7.42E-13  5.77E-13  2.14E-13  8.55E-13  8.20E-13  7.36E-13  5.23E-13  1.15E-09
 -5.6697E-01 -5.2872E-01 -3.1674E-01 -3.1358E-01 -3.0628E-01 -2.6988E-01
 -2.6577E-01 -2.3617E-01
 Non-SCF case, kpt   98 (  0.56452  0.78226  0.78226), residuals and eigenvalues=
  5.75E-13  5.47E-13  5.89E-13  9.68E-13  8.31E-13  6.06E-13  7.93E-13  9.81E-10
 -5.6972E-01 -5.3148E-01 -3.1881E-01 -3.1632E-01 -3.0897E-01 -2.7259E-01
 -2.6840E-01 -2.3903E-01
 Non-SCF case, kpt   99 (  0.58065  0.79032  0.79032), residuals and eigenvalues=
  7.05E-13  6.33E-13  5.68E-13  8.32E-13  6.49E-13  6.12E-13  7.32E-13  6.26E-10
 -5.7237E-01 -5.3414E-01 -3.2082E-01 -3.1898E-01 -3.1158E-01 -2.7522E-01
 -2.7096E-01 -2.4179E-01
 Non-SCF case, kpt  100 (  0.59677  0.79839  0.79839), residuals and eigenvalues=
  8.62E-13  4.48E-13  7.11E-13  6.68E-13  8.24E-13  6.82E-13  7.27E-13  8.83E-10
 -5.7493E-01 -5.3671E-01 -3.2277E-01 -3.2155E-01 -3.1412E-01 -2.7778E-01
 -2.7344E-01 -2.4445E-01
 Non-SCF case, kpt  101 (  0.61290  0.80645  0.80645), residuals and eigenvalues=
  7.49E-13  8.07E-13  7.90E-13  6.77E-13  8.11E-13  8.85E-13  9.41E-13  3.63E-10
 -5.7738E-01 -5.3917E-01 -3.2466E-01 -3.2404E-01 -3.1657E-01 -2.8025E-01
 -2.7585E-01 -2.4700E-01
 Non-SCF case, kpt  102 (  0.62903  0.81452  0.81452), residuals and eigenvalues=
  7.77E-13  8.83E-13  5.34E-13  8.56E-13  9.95E-13  8.07E-13  3.47E-13  3.28E-10
 -5.7974E-01 -5.4154E-01 -3.2650E-01 -3.2645E-01 -3.1894E-01 -2.8264E-01
 -2.7818E-01 -2.4945E-01
 Non-SCF case, kpt  103 (  0.64516  0.82258  0.82258), residuals and eigenvalues=
  9.73E-13  8.41E-13  7.86E-13  8.92E-13  9.09E-13  8.95E-13  9.13E-13  7.59E-11
 -5.8200E-01 -5.4381E-01 -3.2877E-01 -3.2826E-01 -3.2122E-01 -2.8494E-01
 -2.8043E-01 -2.5180E-01
 Non-SCF case, kpt  104 (  0.66129  0.83065  0.83065), residuals and eigenvalues=
  9.77E-13  6.66E-13  7.58E-13  7.18E-13  5.64E-13  8.54E-13  7.00E-13  1.31E-09
 -5.8416E-01 -5.4598E-01 -3.3099E-01 -3.2996E-01 -3.2342E-01 -2.8715E-01
 -2.8259E-01 -2.5405E-01
 Non-SCF case, kpt  105 (  0.67742  0.83871  0.83871), residuals and eigenvalues=
  7.21E-13  8.47E-13  6.96E-13  4.75E-13  5.45E-13  7.90E-13  7.53E-13  3.87E-11
 -5.8622E-01 -5.4805E-01 -3.3313E-01 -3.3159E-01 -3.2552E-01 -2.8927E-01
 -2.8466E-01 -2.5619E-01
 Non-SCF case, kpt  106 (  0.69355  0.84677  0.84677), residuals and eigenvalues=
  9.92E-13  8.36E-13  5.26E-13  9.61E-13  5.07E-13  9.49E-13  8.44E-13  1.97E-12
 -5.8818E-01 -5.5001E-01 -3.3517E-01 -3.3315E-01 -3.2753E-01 -2.9129E-01
 -2.8664E-01 -2.5823E-01
 Non-SCF case, kpt  107 (  0.70968  0.85484  0.85484), residuals and eigenvalues=
  4.94E-13  6.22E-13  3.42E-13  5.91E-13  6.21E-13  8.35E-13  4.52E-13  2.17E-11
 -5.9005E-01 -5.5188E-01 -3.3712E-01 -3.3464E-01 -3.2945E-01 -2.9322E-01
 -2.8853E-01 -2.6016E-01
 Non-SCF case, kpt  108 (  0.72581  0.86290  0.86290), residuals and eigenvalues=
  5.97E-13  7.90E-13  8.06E-13  6.94E-13  3.19E-13  4.98E-13  9.68E-13  8.68E-12
 -5.9181E-01 -5.5365E-01 -3.3897E-01 -3.3605E-01 -3.3127E-01 -2.9506E-01
 -2.9031E-01 -2.6199E-01
 Non-SCF case, kpt  109 (  0.74194  0.87097  0.87097), residuals and eigenvalues=
  4.89E-13  4.99E-13  8.44E-13  7.72E-13  3.04E-13  5.54E-13  8.89E-13  7.79E-12
 -5.9347E-01 -5.5532E-01 -3.4073E-01 -3.3740E-01 -3.3300E-01 -2.9679E-01
 -2.9200E-01 -2.6372E-01
 Non-SCF case, kpt  110 (  0.75806  0.87903  0.87903), residuals and eigenvalues=
  5.76E-13  6.35E-13  5.60E-13  6.71E-13  6.74E-13  6.79E-13  5.66E-13  6.48E-12
 -5.9503E-01 -5.5689E-01 -3.4239E-01 -3.3866E-01 -3.3463E-01 -2.9843E-01
 -2.9358E-01 -2.6534E-01
 Non-SCF case, kpt  111 (  0.77419  0.88710  0.88710), residuals and eigenvalues=
  9.05E-13  6.01E-13  7.34E-13  4.90E-13  6.24E-13  8.27E-13  9.03E-13  3.71E-12
 -5.9650E-01 -5.5835E-01 -3.4395E-01 -3.3985E-01 -3.3615E-01 -2.9997E-01
 -2.9506E-01 -2.6686E-01
 Non-SCF case, kpt  112 (  0.79032  0.89516  0.89516), residuals and eigenvalues=
  9.56E-13  5.07E-13  3.33E-13  4.49E-13  4.66E-13  6.62E-13  5.42E-13  5.90E-12
 -5.9786E-01 -5.5972E-01 -3.4540E-01 -3.4096E-01 -3.3758E-01 -3.0140E-01
 -2.9644E-01 -2.6828E-01
 Non-SCF case, kpt  113 (  0.80645  0.90323  0.90323), residuals and eigenvalues=
  7.92E-13  5.32E-13  6.87E-13  5.50E-13  6.08E-13  6.61E-13  7.00E-13  3.27E-12
 -5.9912E-01 -5.6099E-01 -3.4676E-01 -3.4199E-01 -3.3890E-01 -3.0273E-01
 -2.9771E-01 -2.6959E-01
 Non-SCF case, kpt  114 (  0.82258  0.91129  0.91129), residuals and eigenvalues=
  7.56E-13  8.76E-13  7.44E-13  7.79E-13  9.81E-13  4.35E-13  9.05E-13  5.07E-12
 -6.0028E-01 -5.6215E-01 -3.4802E-01 -3.4294E-01 -3.4012E-01 -3.0396E-01
 -2.9888E-01 -2.7079E-01
 Non-SCF case, kpt  115 (  0.83871  0.91935  0.91935), residuals and eigenvalues=
  8.72E-13  6.33E-13  9.52E-13  6.64E-13  5.43E-13  6.55E-13  6.39E-13  7.30E-12
 -6.0134E-01 -5.6321E-01 -3.4917E-01 -3.4381E-01 -3.4124E-01 -3.0508E-01
 -2.9994E-01 -2.7189E-01
 Non-SCF case, kpt  116 (  0.85484  0.92742  0.92742), residuals and eigenvalues=
  8.82E-13  6.71E-13  5.41E-13  6.13E-13  8.64E-13  5.23E-13  4.01E-13  6.78E-13
 -6.0230E-01 -5.6418E-01 -3.5021E-01 -3.4461E-01 -3.4226E-01 -3.0610E-01
 -3.0090E-01 -2.7289E-01
 Non-SCF case, kpt  117 (  0.87097  0.93548  0.93548), residuals and eigenvalues=
  5.29E-13  6.49E-13  4.12E-13  7.79E-13  4.20E-13  8.46E-13  5.28E-13  2.40E-12
 -6.0316E-01 -5.6504E-01 -3.5115E-01 -3.4531E-01 -3.4317E-01 -3.0702E-01
 -3.0176E-01 -2.7378E-01
 Non-SCF case, kpt  118 (  0.88710  0.94355  0.94355), residuals and eigenvalues=
  6.39E-13  7.58E-13  8.50E-13  8.40E-13  6.82E-13  6.77E-13  7.14E-13  1.51E-12
 -6.0392E-01 -5.6580E-01 -3.5198E-01 -3.4594E-01 -3.4397E-01 -3.0782E-01
 -3.0251E-01 -2.7457E-01
 Non-SCF case, kpt  119 (  0.90323  0.95161  0.95161), residuals and eigenvalues=
  5.16E-13  5.18E-13  6.37E-13  4.50E-13  4.62E-13  9.31E-13  8.22E-13  1.71E-12
 -6.0458E-01 -5.6646E-01 -3.5270E-01 -3.4648E-01 -3.4467E-01 -3.0852E-01
 -3.0316E-01 -2.7525E-01
 Non-SCF case, kpt  120 (  0.91935  0.95968  0.95968), residuals and eigenvalues=
  8.20E-13  7.61E-13  7.76E-13  6.75E-13  6.94E-13  8.78E-13  4.90E-13  1.02E-12
 -6.0513E-01 -5.6701E-01 -3.5332E-01 -3.4695E-01 -3.4526E-01 -3.0911E-01
 -3.0371E-01 -2.7583E-01
 Non-SCF case, kpt  121 (  0.93548  0.96774  0.96774), residuals and eigenvalues=
  8.11E-13  9.37E-13  8.00E-13  5.02E-13  5.95E-13  4.52E-13  8.78E-13  2.54E-12
 -6.0559E-01 -5.6747E-01 -3.5382E-01 -3.4732E-01 -3.4574E-01 -3.0960E-01
 -3.0416E-01 -2.7630E-01
 Non-SCF case, kpt  122 (  0.95161  0.97581  0.97581), residuals and eigenvalues=
  7.66E-13  5.66E-13  8.52E-13  7.12E-13  4.99E-13  5.30E-13  9.44E-13  5.24E-12
 -6.0594E-01 -5.6782E-01 -3.5421E-01 -3.4762E-01 -3.4612E-01 -3.0998E-01
 -3.0451E-01 -2.7667E-01
 Non-SCF case, kpt  123 (  0.96774  0.98387  0.98387), residuals and eigenvalues=
  6.60E-13  8.07E-13  2.30E-13  3.74E-13  7.24E-13  7.61E-13  7.56E-13  1.39E-12
 -6.0619E-01 -5.6808E-01 -3.5449E-01 -3.4783E-01 -3.4639E-01 -3.1025E-01
 -3.0476E-01 -2.7693E-01
 Non-SCF case, kpt  124 (  0.98387  0.99194  0.99194), residuals and eigenvalues=
  7.19E-13  5.77E-13  4.46E-13  4.55E-13  8.04E-13  7.13E-13  6.99E-13  1.07E-11
 -6.0635E-01 -5.6823E-01 -3.5466E-01 -3.4795E-01 -3.4655E-01 -3.1041E-01
 -3.0491E-01 -2.7709E-01
 Non-SCF case, kpt  125 (  1.00000  1.00000  1.00000), residuals and eigenvalues=
  8.47E-13  6.69E-13  7.17E-13  4.33E-13  9.48E-13  5.29E-13  5.99E-13  2.07E-12
 -6.0640E-01 -5.6828E-01 -3.5472E-01 -3.4800E-01 -3.4660E-01 -3.1046E-01
 -3.0495E-01 -2.7714E-01


--- !ResultsGS
iteration_state: {dtset: 2, }
comment   : Summary of ground state results
lattice_vectors:
- [ 22.1700000,   3.7700000,   0.0000000, ]
- [ -2.1700000,   3.7700000,   0.0000000, ]
- [  0.0000000,   0.0000000,  30.0000000, ]
lattice_lengths: [  22.48826,    4.34992,   30.00000, ]
lattice_angles: [ 90.000,  90.000, 110.274, ] # degrees, (23, 13, 12)
lattice_volume:   2.7528540E+03
convergence: {deltae:  0.000E+00, res2:  0.000E+00, residm:  9.963E-13, diffor:  0.000E+00, }
etotal    :  -1.83578526E+01
entropy   :   0.00000000E+00
fermie    :  -1.13626726E-01
cartesian_stress_tensor: null
pressure_GPa: null
xred      :
- [  3.3000E-01,   6.7000E-01,   2.5000E-01,  B]
- [  6.7000E-01,   3.3000E-01,   2.5000E-01,  N]
- [  6.7000E-01,   3.3000E-01,   7.5000E-01,  B]
- [  3.3000E-01,   6.7000E-01,   7.5000E-01,  B]
cartesian_forces: null
force_length_stats: {min: null, max: null, mean: null, }
...

 Integrated electronic density in atomic spheres:
 ------------------------------------------------
 Atom  Sphere_radius  Integrated_density
    1        2.00000          1.78152167
    2        2.00000          4.35842468
    3        2.00000          1.60685708
    4        2.00000          1.56913503
================================================================================

 ----iterations are completed or convergence reached----

 Mean square residual over all n,k,spin=   69.406E-14; max=  99.630E-14
 reduced coordinates (array xred) for    4 atoms
       0.330000000000      0.670000000000      0.250000000000
       0.670000000000      0.330000000000      0.250000000000
       0.670000000000      0.330000000000      0.750000000000
       0.330000000000      0.670000000000      0.750000000000

 cartesian coordinates (angstrom) at end:
    1      3.10214263219630     1.99499807638430     3.96882906442500
    2      7.48140153960370     1.99499807638430     3.96882906442500
    3      7.48140153960370     1.99499807638430    11.90648719327500
    4      3.10214263219630     1.99499807638430    11.90648719327500
 length scales=  1.000000000000  1.000000000000  1.000000000000 bohr
              =  0.529177208590  0.529177208590  0.529177208590 angstroms
 prteigrs : about to open file Boron_Nitride_BandStructureo_DS2_EIG
 Eigenvalues (   eV  ) for nkpt= 125  k points:
 kpt#   1, nband=  8, wtk=  1.00000, kpt=  0.5000  0.0000  0.0000 (reduced coord)
 -16.50084  -15.46380   -9.64810   -9.46945   -9.43142   -8.44839   -8.30729   -7.54136
 kpt#   2, nband=  8, wtk=  1.00000, kpt=  0.4500  0.0000  0.0000 (reduced coord)
 -16.50084  -15.46380   -9.64820   -9.46945   -9.43143   -8.44838   -8.30707   -7.54136
 kpt#   3, nband=  8, wtk=  1.00000, kpt=  0.4000  0.0000  0.0000 (reduced coord)
 -16.50084  -15.46379   -9.64851   -9.46945   -9.43143   -8.44837   -8.30642   -7.54136
 kpt#   4, nband=  8, wtk=  1.00000, kpt=  0.3500  0.0000  0.0000 (reduced coord)
 -16.50084  -15.46378   -9.64898   -9.46945   -9.43144   -8.44835   -8.30542   -7.54136
 kpt#   5, nband=  8, wtk=  1.00000, kpt=  0.3000  0.0000  0.0000 (reduced coord)
 -16.50085  -15.46377   -9.64958   -9.46945   -9.43146   -8.44832   -8.30416   -7.54135
 kpt#   6, nband=  8, wtk=  1.00000, kpt=  0.2500  0.0000  0.0000 (reduced coord)
 -16.50085  -15.46376   -9.65024   -9.46946   -9.43147   -8.44828   -8.30276   -7.54134
 kpt#   7, nband=  8, wtk=  1.00000, kpt=  0.2000  0.0000  0.0000 (reduced coord)
 -16.50086  -15.46374   -9.65089   -9.46946   -9.43149   -8.44825   -8.30136   -7.54134
 kpt#   8, nband=  8, wtk=  1.00000, kpt=  0.1500  0.0000  0.0000 (reduced coord)
 -16.50086  -15.46373   -9.65149   -9.46946   -9.43150   -8.44822   -8.30010   -7.54133
 kpt#   9, nband=  8, wtk=  1.00000, kpt=  0.1000  0.0000  0.0000 (reduced coord)
 -16.50087  -15.46372   -9.65196   -9.46946   -9.43151   -8.44820   -8.29910   -7.54133
 kpt#  10, nband=  8, wtk=  1.00000, kpt=  0.0500  0.0000  0.0000 (reduced coord)
 -16.50087  -15.46371   -9.65226   -9.46946   -9.43152   -8.44818   -8.29846   -7.54133
 kpt#  11, nband=  8, wtk=  1.00000, kpt=  0.0000  0.0000  0.0000 (reduced coord)
 -16.50087  -15.46371   -9.65236   -9.46946   -9.43152   -8.44818   -8.29823   -7.54133
 kpt#  12, nband=  8, wtk=  1.00000, kpt=  0.0000  0.0096  0.0096 (reduced coord)
 -16.49891  -15.46175   -9.65023   -9.46783   -9.42943   -8.44608   -8.29623   -7.53930
 kpt#  13, nband=  8, wtk=  1.00000, kpt=  0.0000  0.0192  0.0192 (reduced coord)
 -16.49304  -15.45586   -9.64384   -9.46295   -9.42319   -8.43981   -8.29021   -7.53320
 kpt#  14, nband=  8, wtk=  1.00000, kpt=  0.0000  0.0288  0.0288 (reduced coord)
 -16.48326  -15.44606   -9.63320   -9.45482   -9.41278   -8.42935   -8.28018   -7.52305
 kpt#  15, nband=  8, wtk=  1.00000, kpt=  0.0000  0.0385  0.0385 (reduced coord)
 -16.46957  -15.43232   -9.61832   -9.44346   -9.39823   -8.41472   -8.26616   -7.50884
 kpt#  16, nband=  8, wtk=  1.00000, kpt=  0.0000  0.0481  0.0481 (reduced coord)
 -16.45197  -15.41467   -9.59920   -9.42886   -9.37954   -8.39594   -8.24814   -7.49056
 kpt#  17, nband=  8, wtk=  1.00000, kpt=  0.0000  0.0577  0.0577 (reduced coord)
 -16.43046  -15.39310   -9.57587   -9.41105   -9.35673   -8.37301   -8.22615   -7.46823
 kpt#  18, nband=  8, wtk=  1.00000, kpt=  0.0000  0.0673  0.0673 (reduced coord)
 -16.40505  -15.36761   -9.54835   -9.39005   -9.32981   -8.34596   -8.20019   -7.44185
 kpt#  19, nband=  8, wtk=  1.00000, kpt=  0.0000  0.0769  0.0769 (reduced coord)
 -16.37574  -15.33821   -9.51666   -9.36588   -9.29882   -8.31481   -8.17030   -7.41141
 kpt#  20, nband=  8, wtk=  1.00000, kpt=  0.0000  0.0865  0.0865 (reduced coord)
 -16.34253  -15.30490   -9.48083   -9.33856   -9.26379   -8.27958   -8.13648   -7.37693
 kpt#  21, nband=  8, wtk=  1.00000, kpt=  0.0000  0.0962  0.0962 (reduced coord)
 -16.30542  -15.26768   -9.44090   -9.30812   -9.22473   -8.24032   -8.09878   -7.33840
 kpt#  22, nband=  8, wtk=  1.00000, kpt=  0.0000  0.1058  0.1058 (reduced coord)
 -16.26443  -15.22656   -9.39691   -9.27460   -9.18170   -8.19705   -8.05722   -7.29582
 kpt#  23, nband=  8, wtk=  1.00000, kpt=  0.0000  0.1154  0.1154 (reduced coord)
 -16.21955  -15.18154   -9.34889   -9.23804   -9.13474   -8.14982   -8.01184   -7.24921
 kpt#  24, nband=  8, wtk=  1.00000, kpt=  0.0000  0.1250  0.1250 (reduced coord)
 -16.17079  -15.13263   -9.29690   -9.19848   -9.08388   -8.09867   -7.96269   -7.19857
 kpt#  25, nband=  8, wtk=  1.00000, kpt=  0.0000  0.1346  0.1346 (reduced coord)
 -16.11816  -15.07983   -9.24099   -9.15597   -9.02919   -8.04366   -7.90980   -7.14391
 kpt#  26, nband=  8, wtk=  1.00000, kpt=  0.0000  0.1442  0.1442 (reduced coord)
 -16.06166  -15.02314   -9.18123   -9.11056   -8.97073   -7.98484   -7.85325   -7.08522
 kpt#  27, nband=  8, wtk=  1.00000, kpt=  0.0000  0.1538  0.1538 (reduced coord)
 -16.00130  -14.96259   -9.11767   -9.06231   -8.90856   -7.92228   -7.79308   -7.02251
 kpt#  28, nband=  8, wtk=  1.00000, kpt=  0.0000  0.1635  0.1635 (reduced coord)
 -15.93709  -14.89816   -9.05040   -9.01129   -8.84275   -7.85605   -7.72938   -6.95580
 kpt#  29, nband=  8, wtk=  1.00000, kpt=  0.0000  0.1731  0.1731 (reduced coord)
 -15.86904  -14.82988   -8.97949   -8.95757   -8.77339   -7.78623   -7.66221   -6.88509
 kpt#  30, nband=  8, wtk=  1.00000, kpt=  0.0000  0.1827  0.1827 (reduced coord)
 -15.79715  -14.75774   -8.90504   -8.90123   -8.70056   -7.71291   -7.59167   -6.81038
 kpt#  31, nband=  8, wtk=  1.00000, kpt=  0.0000  0.1923  0.1923 (reduced coord)
 -15.72144  -14.68176   -8.84235   -8.82714   -8.62437   -7.63618   -7.51787   -6.73169
 kpt#  32, nband=  8, wtk=  1.00000, kpt=  0.0000  0.2019  0.2019 (reduced coord)
 -15.64191  -14.60195   -8.78104   -8.74592   -8.54493   -7.55616   -7.44091   -6.64902
 kpt#  33, nband=  8, wtk=  1.00000, kpt=  0.0000  0.2115  0.2115 (reduced coord)
 -15.55859  -14.51832   -8.71740   -8.66148   -8.46235   -7.47296   -7.36092   -6.56239
 kpt#  34, nband=  8, wtk=  1.00000, kpt=  0.0000  0.2212  0.2212 (reduced coord)
 -15.47147  -14.43088   -8.65154   -8.57397   -8.37677   -7.38670   -7.27806   -6.47180
 kpt#  35, nband=  8, wtk=  1.00000, kpt=  0.0000  0.2308  0.2308 (reduced coord)
 -15.38057  -14.33964   -8.58358   -8.48355   -8.28833   -7.29755   -7.19249   -6.37727
 kpt#  36, nband=  8, wtk=  1.00000, kpt=  0.0000  0.2404  0.2404 (reduced coord)
 -15.28591  -14.24462   -8.51368   -8.39038   -8.19721   -7.20565   -7.10441   -6.27880
 kpt#  37, nband=  8, wtk=  1.00000, kpt=  0.0000  0.2500  0.2500 (reduced coord)
 -15.18751  -14.14582   -8.44197   -8.29465   -8.10357   -7.11119   -7.01408   -6.17640
 kpt#  38, nband=  8, wtk=  1.00000, kpt=  0.0000  0.2596  0.2596 (reduced coord)
 -15.08537  -14.04328   -8.36863   -8.19659   -8.00761   -7.01435   -6.92186   -6.07009
 kpt#  39, nband=  8, wtk=  1.00000, kpt=  0.0000  0.2692  0.2692 (reduced coord)
 -14.97952  -13.93699   -8.29383   -8.09646   -7.90956   -6.91536   -6.82833   -5.95933
 kpt#  40, nband=  8, wtk=  1.00000, kpt=  0.0000  0.2788  0.2788 (reduced coord)
 -14.86998  -13.82699   -8.21777   -7.99456   -7.80965   -6.81445   -6.73493   -6.12794
 kpt#  41, nband=  8, wtk=  1.00000, kpt=  0.0000  0.2885  0.2885 (reduced coord)
 -14.75676  -13.71330   -8.14067   -7.89130   -7.70815   -6.71188   -6.64861   -6.36005
 kpt#  42, nband=  8, wtk=  1.00000, kpt=  0.0000  0.2981  0.2981 (reduced coord)
 -14.63990  -13.59592   -8.06277   -7.78722   -7.60535   -6.66550   -6.60794   -6.48533
 kpt#  43, nband=  8, wtk=  1.00000, kpt=  0.0000  0.3077  0.3077 (reduced coord)
 -14.51942  -13.47491   -7.98432   -7.68332   -7.50157   -6.87580   -6.50296   -6.41468
 kpt#  44, nband=  8, wtk=  1.00000, kpt=  0.0000  0.3173  0.3173 (reduced coord)
 -14.39536  -13.35027   -7.90560   -7.58228   -7.39717   -7.10525   -6.39726   -6.32118
 kpt#  45, nband=  8, wtk=  1.00000, kpt=  0.0000  0.3269  0.3269 (reduced coord)
 -14.26774  -13.22204   -7.82692   -7.50325   -7.31497   -7.29253   -6.29092   -6.28146
 kpt#  46, nband=  8, wtk=  1.00000, kpt=  0.0000  0.3365  0.3365 (reduced coord)
 -14.13660  -13.09027   -7.74861   -7.61331   -7.33695   -7.18808   -6.49990   -6.16587
 kpt#  47, nband=  8, wtk=  1.00000, kpt=  0.0000  0.3462  0.3462 (reduced coord)
 -14.00200  -12.95500   -7.83465   -7.67102   -7.25245   -7.08429   -6.72395   -6.07687
 kpt#  48, nband=  8, wtk=  1.00000, kpt=  0.0000  0.3558  0.3558 (reduced coord)
 -13.86398  -12.81626   -8.06338   -7.59455   -7.18773   -6.98166   -6.91933   -5.97274
 kpt#  49, nband=  8, wtk=  1.00000, kpt=  0.0000  0.3654  0.3654 (reduced coord)
 -13.72262  -12.67414   -8.29193   -7.51959   -7.26840   -6.96705   -6.88076   -5.86992
 kpt#  50, nband=  8, wtk=  1.00000, kpt=  0.0000  0.3750  0.3750 (reduced coord)
 -13.57799  -12.52871   -8.51881   -7.46883   -7.44661   -6.89421   -6.78217   -5.75581
 kpt#  51, nband=  8, wtk=  1.00000, kpt=  0.0000  0.3846  0.3846 (reduced coord)
 -13.43020  -12.38005   -8.74341   -7.68699   -7.37605   -6.80363   -6.68654   -5.64261
 kpt#  52, nband=  8, wtk=  1.00000, kpt=  0.0000  0.3942  0.3942 (reduced coord)
 -13.27937  -12.22830   -8.96534   -7.90700   -7.30842   -6.71180   -6.59455   -5.56890
 kpt#  53, nband=  8, wtk=  1.00000, kpt=  0.0000  0.4038  0.4038 (reduced coord)
 -13.12569  -12.07361   -9.18428   -8.12565   -7.24422   -6.62253   -6.50693   -5.47658
 kpt#  54, nband=  8, wtk=  1.00000, kpt=  0.0000  0.4135  0.4135 (reduced coord)
 -12.96938  -11.91621   -9.39987   -8.34175   -7.18397   -6.53756   -6.42441   -5.40417
 kpt#  55, nband=  8, wtk=  1.00000, kpt=  0.0000  0.4231  0.4231 (reduced coord)
 -12.81080  -11.75642   -9.61167   -8.55455   -7.12821   -6.45813   -6.34778   -5.32542
 kpt#  56, nband=  8, wtk=  1.00000, kpt=  0.0000  0.4327  0.4327 (reduced coord)
 -12.65043  -11.59470   -9.81912   -8.76333   -7.07745   -6.38526   -6.27781   -5.24068
 kpt#  57, nband=  8, wtk=  1.00000, kpt=  0.0000  0.4423  0.4423 (reduced coord)
 -12.48906  -11.43180  -10.02136   -8.96724   -7.03223   -6.31990   -6.21527   -5.18752
 kpt#  58, nband=  8, wtk=  1.00000, kpt=  0.0000  0.4519  0.4519 (reduced coord)
 -12.32799  -11.26895  -10.21703   -9.16497   -6.99301   -6.26292   -6.16088   -5.13278
 kpt#  59, nband=  8, wtk=  1.00000, kpt=  0.0000  0.4615  0.4615 (reduced coord)
 -12.16949  -11.10839  -10.40373   -9.35430   -6.96025   -6.21509   -6.11533   -5.08949
 kpt#  60, nband=  8, wtk=  1.00000, kpt=  0.0000  0.4712  0.4712 (reduced coord)
 -12.01790  -10.95457  -10.57679   -9.53104   -6.93433   -6.17712   -6.07922   -5.04627
 kpt#  61, nband=  8, wtk=  1.00000, kpt=  0.0000  0.4808  0.4808 (reduced coord)
 -11.88200  -10.81986  -10.72365   -9.68651   -6.91558   -6.14957   -6.05306   -5.02748
 kpt#  62, nband=  8, wtk=  1.00000, kpt=  0.0000  0.4904  0.4904 (reduced coord)
 -11.77968  -10.84613  -10.70286   -9.80242   -6.90423   -6.13286   -6.03720   -5.00660
 kpt#  63, nband=  8, wtk=  1.00000, kpt=  0.0000  0.5000  0.5000 (reduced coord)
 -11.73963  -10.88779  -10.66228   -9.84774   -6.90043   -6.12726   -6.03189   -4.99757
 kpt#  64, nband=  8, wtk=  1.00000, kpt=  0.0161  0.5081  0.5081 (reduced coord)
 -11.76820  -10.85794  -10.69143   -9.81541   -6.90311   -6.13120   -6.03562   -5.00031
 kpt#  65, nband=  8, wtk=  1.00000, kpt=  0.0323  0.5161  0.5161 (reduced coord)
 -11.84411  -10.79706  -10.74889   -9.72950   -6.91110   -6.14295   -6.04680   -5.02095
 kpt#  66, nband=  8, wtk=  1.00000, kpt=  0.0484  0.5242  0.5242 (reduced coord)
 -11.94936  -10.88530  -10.65282   -9.60975   -6.92435   -6.16240   -6.06529   -5.03456
 kpt#  67, nband=  8, wtk=  1.00000, kpt=  0.0645  0.5323  0.5323 (reduced coord)
 -12.07048  -11.00793  -10.51741   -9.47017   -6.94273   -6.18933   -6.09092   -5.05380
 kpt#  68, nband=  8, wtk=  1.00000, kpt=  0.0806  0.5403  0.5403 (reduced coord)
 -12.19981  -11.13913  -10.36846   -9.31847   -6.96607   -6.22344   -6.12343   -5.09847
 kpt#  69, nband=  8, wtk=  1.00000, kpt=  0.0968  0.5484  0.5484 (reduced coord)
 -12.33316  -11.27419  -10.21084   -9.15871   -6.99418   -6.26439   -6.16250   -5.13531
 kpt#  70, nband=  8, wtk=  1.00000, kpt=  0.1129  0.5565  0.5565 (reduced coord)
 -12.46822  -11.41076  -10.04701   -8.99315   -7.02682   -6.31177   -6.20777   -5.17930
 kpt#  71, nband=  8, wtk=  1.00000, kpt=  0.1290  0.5645  0.5645 (reduced coord)
 -12.60364  -11.54750   -9.87842   -8.82309   -7.06373   -6.36511   -6.25885   -5.23903
 kpt#  72, nband=  8, wtk=  1.00000, kpt=  0.1452  0.5726  0.5726 (reduced coord)
 -12.73855  -11.68360   -9.70594   -8.64939   -7.10463   -6.42392   -6.31531   -5.28770
 kpt#  73, nband=  8, wtk=  1.00000, kpt=  0.1613  0.5806  0.5806 (reduced coord)
 -12.87242  -11.81854   -9.53016   -8.47263   -7.14923   -6.48766   -6.37669   -5.35955
 kpt#  74, nband=  8, wtk=  1.00000, kpt=  0.1774  0.5887  0.5887 (reduced coord)
 -13.00489  -11.95199   -9.35150   -8.29324   -7.19720   -6.55576   -6.44255   -5.41444
 kpt#  75, nband=  8, wtk=  1.00000, kpt=  0.1935  0.5968  0.5968 (reduced coord)
 -13.13568  -12.08369   -9.17025   -8.11164   -7.24824   -6.62760   -6.51242   -5.49690
 kpt#  76, nband=  8, wtk=  1.00000, kpt=  0.2097  0.6048  0.6048 (reduced coord)
 -13.26462  -12.21347   -8.98667   -7.92827   -7.30205   -6.70245   -6.58586   -5.56747
 kpt#  77, nband=  8, wtk=  1.00000, kpt=  0.2258  0.6129  0.6129 (reduced coord)
 -13.39155  -12.34119   -8.80095   -7.74382   -7.35830   -6.77929   -6.66242   -5.63684
 kpt#  78, nband=  8, wtk=  1.00000, kpt=  0.2419  0.6210  0.6210 (reduced coord)
 -13.51639  -12.46676   -8.61329   -7.55971   -7.41670   -6.85637   -6.74166   -5.72898
 kpt#  79, nband=  8, wtk=  1.00000, kpt=  0.2581  0.6290  0.6290 (reduced coord)
 -13.63903  -12.59010   -8.42391   -7.47695   -7.38039   -6.92888   -6.82318   -5.81108
 kpt#  80, nband=  8, wtk=  1.00000, kpt=  0.2742  0.6371  0.6371 (reduced coord)
 -13.75941  -12.71114   -8.23307   -7.53877   -7.22826   -6.97403   -6.90660   -5.89331
 kpt#  81, nband=  8, wtk=  1.00000, kpt=  0.2903  0.6452  0.6452 (reduced coord)
 -13.87748  -12.82984   -8.04121   -7.60189   -7.19068   -6.99153   -6.90393   -5.98465
 kpt#  82, nband=  8, wtk=  1.00000, kpt=  0.3065  0.6532  0.6532 (reduced coord)
 -13.99320  -12.94614   -7.84934   -7.66605   -7.24727   -7.07763   -6.73800   -6.01439
 kpt#  83, nband=  8, wtk=  1.00000, kpt=  0.3226  0.6613  0.6613 (reduced coord)
 -14.10651  -13.06002   -7.73101   -7.66130   -7.31969   -7.16458   -6.55122   -6.16117
 kpt#  84, nband=  8, wtk=  1.00000, kpt=  0.3387  0.6694  0.6694 (reduced coord)
 -14.21740  -13.17144   -7.79654   -7.51226   -7.35764   -7.25206   -6.35709   -6.24459
 kpt#  85, nband=  8, wtk=  1.00000, kpt=  0.3548  0.6774  0.6774 (reduced coord)
 -14.32582  -13.28037   -7.86243   -7.53314   -7.33981   -7.22702   -6.33906   -6.27122
 kpt#  86, nband=  8, wtk=  1.00000, kpt=  0.3710  0.6855  0.6855 (reduced coord)
 -14.43176  -13.38679   -7.92847   -7.61237   -7.42755   -7.03881   -6.42795   -6.34641
 kpt#  87, nband=  8, wtk=  1.00000, kpt=  0.3871  0.6935  0.6935 (reduced coord)
 -14.53519  -13.49069   -7.99447   -7.69840   -7.51504   -6.84612   -6.51648   -6.42318
 kpt#  88, nband=  8, wtk=  1.00000, kpt=  0.4032  0.7016  0.7016 (reduced coord)
 -14.63609  -13.59203   -8.06025   -7.78592   -7.60206   -6.66927   -6.60448   -6.48219
 kpt#  89, nband=  8, wtk=  1.00000, kpt=  0.4194  0.7097  0.7097 (reduced coord)
 -14.73445  -13.69082   -8.12565   -7.87353   -7.68839   -6.69176   -6.63097   -6.40095
 kpt#  90, nband=  8, wtk=  1.00000, kpt=  0.4355  0.7177  0.7177 (reduced coord)
 -14.83024  -13.78702   -8.19053   -7.96062   -7.77385   -6.77812   -6.69727   -6.21336
 kpt#  91, nband=  8, wtk=  1.00000, kpt=  0.4516  0.7258  0.7258 (reduced coord)
 -14.92346  -13.88063   -8.25472   -8.04682   -7.85826   -6.86338   -6.77427   -6.01261
 kpt#  92, nband=  8, wtk=  1.00000, kpt=  0.4677  0.7339  0.7339 (reduced coord)
 -15.01409  -13.97163   -8.31811   -8.13184   -7.94146   -6.94739   -6.85270   -5.99514
 kpt#  93, nband=  8, wtk=  1.00000, kpt=  0.4839  0.7419  0.7419 (reduced coord)
 -15.10212  -14.06001   -8.38056   -8.21548   -8.02329   -7.03000   -6.93086   -6.08748
 kpt#  94, nband=  8, wtk=  1.00000, kpt=  0.5000  0.7500  0.7500 (reduced coord)
 -15.18753  -14.14576   -8.44197   -8.29755   -8.10362   -7.11106   -7.00814   -6.17638
 kpt#  95, nband=  8, wtk=  1.00000, kpt=  0.5161  0.7581  0.7581 (reduced coord)
 -15.27032  -14.22888   -8.50223   -8.37791   -8.18232   -7.19046   -7.08424   -6.26252
 kpt#  96, nband=  8, wtk=  1.00000, kpt=  0.5323  0.7661  0.7661 (reduced coord)
 -15.35047  -14.30935   -8.56124   -8.45642   -8.25927   -7.26808   -7.15894   -6.34591
 kpt#  97, nband=  8, wtk=  1.00000, kpt=  0.5484  0.7742  0.7742 (reduced coord)
 -15.42798  -14.38716   -8.61891   -8.53296   -8.33437   -7.34381   -7.23207   -6.42653
 kpt#  98, nband=  8, wtk=  1.00000, kpt=  0.5645  0.7823  0.7823 (reduced coord)
 -15.50283  -14.46230   -8.67515   -8.60744   -8.40751   -7.41756   -7.30351   -6.50438
 kpt#  99, nband=  8, wtk=  1.00000, kpt=  0.5806  0.7903  0.7903 (reduced coord)
 -15.57502  -14.53477   -8.72989   -8.67978   -8.47860   -7.48922   -7.37311   -6.57945
 kpt# 100, nband=  8, wtk=  1.00000, kpt=  0.5968  0.7984  0.7984 (reduced coord)
 -15.64455  -14.60456   -8.78306   -8.74988   -8.54756   -7.55873   -7.44077   -6.65174
 kpt# 101, nband=  8, wtk=  1.00000, kpt=  0.6129  0.8065  0.8065 (reduced coord)
 -15.71140  -14.67166   -8.83458   -8.81769   -8.61432   -7.62600   -7.50636   -6.72124
 kpt# 102, nband=  8, wtk=  1.00000, kpt=  0.6290  0.8145  0.8145 (reduced coord)
 -15.77557  -14.73607   -8.88439   -8.88315   -8.67879   -7.69096   -7.56979   -6.78794
 kpt# 103, nband=  8, wtk=  1.00000, kpt=  0.6452  0.8226  0.8226 (reduced coord)
 -15.83705  -14.79778   -8.94621   -8.93244   -8.74092   -7.75355   -7.63095   -6.85184
 kpt# 104, nband=  8, wtk=  1.00000, kpt=  0.6613  0.8306  0.8306 (reduced coord)
 -15.89583  -14.85678   -9.00681   -8.97868   -8.80064   -7.81371   -7.68976   -6.91294
 kpt# 105, nband=  8, wtk=  1.00000, kpt=  0.6774  0.8387  0.8387 (reduced coord)
[...]
 kpt# 112, nband=  8, wtk=  1.00000, kpt=  0.7903  0.8952  0.8952 (reduced coord)
 -16.26855  -15.23076   -9.39894   -9.27797   -9.18599   -8.20153   -8.06647   -7.30014
 kpt# 113, nband=  8, wtk=  1.00000, kpt=  0.8065  0.9032  0.9032 (reduced coord)
 -16.30288  -15.26519   -9.43587   -9.30604   -9.22203   -8.23776   -8.10111   -7.33579
 kpt# 114, nband=  8, wtk=  1.00000, kpt=  0.8226  0.9113  0.9113 (reduced coord)
 -16.33447  -15.29688   -9.46999   -9.33195   -9.25527   -8.27118   -8.13291   -7.36860
 kpt# 115, nband=  8, wtk=  1.00000, kpt=  0.8387  0.9194  0.9194 (reduced coord)
 -16.36333  -15.32582   -9.50129   -9.35567   -9.28570   -8.30175   -8.16187   -7.39856
 kpt# 116, nband=  8, wtk=  1.00000, kpt=  0.8548  0.9274  0.9274 (reduced coord)
 -16.38945  -15.35201   -9.52973   -9.37718   -9.31328   -8.32947   -8.18800   -7.42567
 kpt# 117, nband=  8, wtk=  1.00000, kpt=  0.8710  0.9355  0.9355 (reduced coord)
 -16.41282  -15.37545   -9.55528   -9.39647   -9.33802   -8.35431   -8.21130   -7.44994
 kpt# 118, nband=  8, wtk=  1.00000, kpt=  0.8871  0.9435  0.9435 (reduced coord)
 -16.43345  -15.39613   -9.57790   -9.41353   -9.35987   -8.37626   -8.23180   -7.47135
 kpt# 119, nband=  8, wtk=  1.00000, kpt=  0.9032  0.9516  0.9516 (reduced coord)
 -16.45133  -15.41406   -9.59757   -9.42834   -9.37885   -8.39531   -8.24950   -7.48991
 kpt# 120, nband=  8, wtk=  1.00000, kpt=  0.9194  0.9597  0.9597 (reduced coord)
 -16.46646  -15.42923   -9.61426   -9.44088   -9.39492   -8.41144   -8.26444   -7.50562
 kpt# 121, nband=  8, wtk=  1.00000, kpt=  0.9355  0.9677  0.9677 (reduced coord)
 -16.47885  -15.44164   -9.62795   -9.45116   -9.40808   -8.42466   -8.27664   -7.51847
 kpt# 122, nband=  8, wtk=  1.00000, kpt=  0.9516  0.9758  0.9758 (reduced coord)
 -16.48848  -15.45130   -9.63862   -9.45916   -9.41833   -8.43494   -8.28610   -7.52847
 kpt# 123, nband=  8, wtk=  1.00000, kpt=  0.9677  0.9839  0.9839 (reduced coord)
 -16.49536  -15.45819   -9.64625   -9.46488   -9.42566   -8.44229   -8.29284   -7.53561
 kpt# 124, nband=  8, wtk=  1.00000, kpt=  0.9839  0.9919  0.9919 (reduced coord)
 -16.49949  -15.46233   -9.65083   -9.46831   -9.43005   -8.44671   -8.29689   -7.53990
 kpt# 125, nband=  8, wtk=  1.00000, kpt=  1.0000  1.0000  1.0000 (reduced coord)
 -16.50087  -15.46371   -9.65236   -9.46946   -9.43152   -8.44818   -8.29823   -7.54133

== END DATASET(S) ==============================================================
================================================================================
  
 -outvars: echo values of variables after computation  --------
            acell      1.0000000000E+00  1.0000000000E+00  1.0000000000E+00 Bohr
              amu      1.08110000E+01  1.40067400E+01
           diemac      1.00000000E+01
             ecut      5.00000000E+01 Hartree
           enunit1          0
           enunit2          1
           etotal1    -1.8357852582E+01
            fcart1     9.0182302928E-03  5.6808327942E-03 -0.0000000000E+00
                      -9.0867899831E-03 -5.4865699663E-03 -0.0000000000E+00
                      -7.8703094592E-03 -4.8764322417E-03 -0.0000000000E+00
                       7.9388691496E-03  4.6821694139E-03 -0.0000000000E+00
-          fftalg         112
           getden1          0
           getden2         -1
             iscf1          7
             iscf2         -2
           istwfk1       0    0    0    0    0    0    0    0    0    0
                         0    0    0    0    0    0    4    0    5    0
                         0    0    0    0    0    0    0    0    0    0
                         0    8    0    9
           istwfk2       3    0    0    0    0    0    0    0    0    0
                         2    0    0    0    0    0    0    0    0    0
                         0    0    0    0    0    0    0    0    0    0
                         0    0    0    0    0    0    0    0    0    0
                         0    0    0    0    0    0    0    0    0    0
                       outvar_i_n : Printing only first  50 k-points.
              ixc          11
           jdtset        1    2
              kpt1     1.25000000E-01  0.00000000E+00  0.00000000E+00
                       3.75000000E-01  0.00000000E+00  0.00000000E+00
                       0.00000000E+00  1.25000000E-01  0.00000000E+00
                       2.50000000E-01  1.25000000E-01  0.00000000E+00
                       5.00000000E-01  1.25000000E-01  0.00000000E+00
                      -2.50000000E-01  1.25000000E-01  0.00000000E+00
                       1.25000000E-01  2.50000000E-01  0.00000000E+00
                       3.75000000E-01  2.50000000E-01  0.00000000E+00
                      -3.75000000E-01  2.50000000E-01  0.00000000E+00
                      -1.25000000E-01  2.50000000E-01  0.00000000E+00
                       0.00000000E+00  3.75000000E-01  0.00000000E+00
                       2.50000000E-01  3.75000000E-01  0.00000000E+00
                       5.00000000E-01  3.75000000E-01  0.00000000E+00
                      -2.50000000E-01  3.75000000E-01  0.00000000E+00
                       1.25000000E-01  5.00000000E-01  0.00000000E+00
                       3.75000000E-01  5.00000000E-01  0.00000000E+00
                       0.00000000E+00  0.00000000E+00  5.00000000E-01
                       2.50000000E-01  0.00000000E+00  5.00000000E-01
                       5.00000000E-01  0.00000000E+00  5.00000000E-01
                       1.25000000E-01  1.25000000E-01  5.00000000E-01
                       3.75000000E-01  1.25000000E-01  5.00000000E-01
                      -3.75000000E-01  1.25000000E-01  5.00000000E-01
                      -1.25000000E-01  1.25000000E-01  5.00000000E-01
                       0.00000000E+00  2.50000000E-01  5.00000000E-01
                       2.50000000E-01  2.50000000E-01  5.00000000E-01
                       5.00000000E-01  2.50000000E-01  5.00000000E-01
                      -2.50000000E-01  2.50000000E-01  5.00000000E-01
                       1.25000000E-01  3.75000000E-01  5.00000000E-01
                       3.75000000E-01  3.75000000E-01  5.00000000E-01
                      -3.75000000E-01  3.75000000E-01  5.00000000E-01
                      -1.25000000E-01  3.75000000E-01  5.00000000E-01
                       0.00000000E+00  5.00000000E-01  5.00000000E-01
                       2.50000000E-01  5.00000000E-01  5.00000000E-01
                       5.00000000E-01  5.00000000E-01  5.00000000E-01
              kpt2     5.00000000E-01  0.00000000E+00  0.00000000E+00
                       4.50000000E-01  0.00000000E+00  0.00000000E+00
                       4.00000000E-01  0.00000000E+00  0.00000000E+00
                       3.50000000E-01  0.00000000E+00  0.00000000E+00
                       3.00000000E-01  0.00000000E+00  0.00000000E+00
                       2.50000000E-01  0.00000000E+00  0.00000000E+00
                       2.00000000E-01  0.00000000E+00  0.00000000E+00
                       1.50000000E-01  0.00000000E+00  0.00000000E+00
                       1.00000000E-01  0.00000000E+00  0.00000000E+00
                       5.00000000E-02  0.00000000E+00  0.00000000E+00
                       0.00000000E+00  0.00000000E+00  0.00000000E+00
                       0.00000000E+00  9.61538462E-03  9.61538462E-03
                       0.00000000E+00  1.92307692E-02  1.92307692E-02
                       0.00000000E+00  2.88461538E-02  2.88461538E-02
                       0.00000000E+00  3.84615385E-02  3.84615385E-02
                       0.00000000E+00  4.80769231E-02  4.80769231E-02
                       0.00000000E+00  5.76923077E-02  5.76923077E-02
                       0.00000000E+00  6.73076923E-02  6.73076923E-02
                       0.00000000E+00  7.69230769E-02  7.69230769E-02
                       0.00000000E+00  8.65384615E-02  8.65384615E-02
                       0.00000000E+00  9.61538462E-02  9.61538462E-02
                       0.00000000E+00  1.05769231E-01  1.05769231E-01
                       0.00000000E+00  1.15384615E-01  1.15384615E-01
                       0.00000000E+00  1.25000000E-01  1.25000000E-01
                       0.00000000E+00  1.34615385E-01  1.34615385E-01
                       0.00000000E+00  1.44230769E-01  1.44230769E-01
                       0.00000000E+00  1.53846154E-01  1.53846154E-01
                       0.00000000E+00  1.63461538E-01  1.63461538E-01
                       0.00000000E+00  1.73076923E-01  1.73076923E-01
                       0.00000000E+00  1.82692308E-01  1.82692308E-01
                       0.00000000E+00  1.92307692E-01  1.92307692E-01
                       0.00000000E+00  2.01923077E-01  2.01923077E-01
                       0.00000000E+00  2.11538462E-01  2.11538462E-01
                       0.00000000E+00  2.21153846E-01  2.21153846E-01
                       0.00000000E+00  2.30769231E-01  2.30769231E-01
                       0.00000000E+00  2.40384615E-01  2.40384615E-01
                       0.00000000E+00  2.50000000E-01  2.50000000E-01
                       0.00000000E+00  2.59615385E-01  2.59615385E-01
                       0.00000000E+00  2.69230769E-01  2.69230769E-01
                       0.00000000E+00  2.78846154E-01  2.78846154E-01
                       0.00000000E+00  2.88461538E-01  2.88461538E-01
                       0.00000000E+00  2.98076923E-01  2.98076923E-01
                       0.00000000E+00  3.07692308E-01  3.07692308E-01
                       0.00000000E+00  3.17307692E-01  3.17307692E-01
                       0.00000000E+00  3.26923077E-01  3.26923077E-01
                       0.00000000E+00  3.36538462E-01  3.36538462E-01
                       0.00000000E+00  3.46153846E-01  3.46153846E-01
                       0.00000000E+00  3.55769231E-01  3.55769231E-01
                       0.00000000E+00  3.65384615E-01  3.65384615E-01
                       0.00000000E+00  3.75000000E-01  3.75000000E-01
                       outvar_i_n : Printing only first  50 k-points.
           kptopt1          1
           kptopt2         -3
         kptrlatt        4    4   -1      0    8    0      0    0    2
          kptrlen1     3.47993563E+01
          kptrlen2     3.00000000E+01
P           mkmem1         34
P           mkmem2        125
            natom           4
            nband1          8
            nband2          8
           nbdbuf1          0
           nbdbuf2          2
           ndtset           2
           ndivsm1          0
           ndivsm2         10
            ngfft         144      30     192
             nkpt1         34
             nkpt2        125
            nstep          25
             nsym           2
           ntypat           2
              occ      2.000000  2.000000  2.000000  2.000000  2.000000  2.000000
                       2.000000  0.000000
            rprim      2.2170000000E+01  3.7700000000E+00  0.0000000000E+00
                      -2.1700000000E+00  3.7700000000E+00  0.0000000000E+00
                       0.0000000000E+00  0.0000000000E+00  3.0000000000E+01
           shiftk1    -5.00000000E-01  0.00000000E+00  1.00000000E+00
           shiftk2     5.00000000E-01  5.00000000E-01  5.00000000E-01
          spgroup           6
           strten1     4.9879810307E-05  1.2973904315E-04  1.9772460225E-06
                       0.0000000000E+00  0.0000000000E+00 -6.7208368132E-05
           symrel      1  0  0   0  1  0   0  0  1       1  0  0   0  1  0   0  0 -1
            tnons      0.0000000  0.0000000  0.0000000     0.0000000  0.0000000  0.5000000
           toldfe1     1.00000000E-08 Hartree
           toldfe2     0.00000000E+00 Hartree
           tolwfr1     0.00000000E+00
           tolwfr2     1.00000000E-12
            typat      1  2  1  1
              wtk1       0.03125    0.03125    0.03125    0.03125    0.03125    0.03125
                         0.03125    0.03125    0.03125    0.03125    0.03125    0.03125
                         0.03125    0.03125    0.03125    0.03125    0.01563    0.03125
                         0.01563    0.03125    0.03125    0.03125    0.03125    0.03125
                         0.03125    0.03125    0.03125    0.03125    0.03125    0.03125
                         0.03125    0.01563    0.03125    0.01563
              wtk2       1.00000    1.00000    1.00000    1.00000    1.00000    1.00000
                         1.00000    1.00000    1.00000    1.00000    1.00000    1.00000
                         1.00000    1.00000    1.00000    1.00000    1.00000    1.00000
                         1.00000    1.00000    1.00000    1.00000    1.00000    1.00000
                         1.00000    1.00000    1.00000    1.00000    1.00000    1.00000
                         1.00000    1.00000    1.00000    1.00000    1.00000    1.00000
                         1.00000    1.00000    1.00000    1.00000    1.00000    1.00000
                         1.00000    1.00000    1.00000    1.00000    1.00000    1.00000
                         1.00000    1.00000
                       outvars : Printing only first  50 k-points.
           xangst      3.1021426322E+00  1.9949980764E+00  3.9688290644E+00
                       7.4814015396E+00  1.9949980764E+00  3.9688290644E+00
                       7.4814015396E+00  1.9949980764E+00  1.1906487193E+01
                       3.1021426322E+00  1.9949980764E+00  1.1906487193E+01
            xcart      5.8622000000E+00  3.7700000000E+00  7.5000000000E+00
                       1.4137800000E+01  3.7700000000E+00  7.5000000000E+00
                       1.4137800000E+01  3.7700000000E+00  2.2500000000E+01
                       5.8622000000E+00  3.7700000000E+00  2.2500000000E+01
             xred      3.3000000000E-01  6.7000000000E-01  2.5000000000E-01
                       6.7000000000E-01  3.3000000000E-01  2.5000000000E-01
                       6.7000000000E-01  3.3000000000E-01  7.5000000000E-01
                       3.3000000000E-01  6.7000000000E-01  7.5000000000E-01
            znucl        5.00000    7.00000

================================================================================


- Timing analysis has been suppressed with timopt=0



================================================================================

 Suggested references for the acknowledgment of ABINIT usage.

 The users of ABINIT have little formal obligations with respect to the ABINIT group
 (those specified in the GNU General Public License, http://www.gnu.org/copyleft/gpl.txt).
 However, it is common practice in the scientific literature,
 to acknowledge the efforts of people that have made the research possible.
 In this spirit, please find below suggested citations of work written by ABINIT developers,
 corresponding to implementations inside of ABINIT that you have used in the present run.
 Note also that it will be of great value to readers of publications presenting these results,
 to read papers enabling them to understand the theoretical formalism and details
 of the ABINIT implementation.
 For information on why they are suggested, see also https://docs.abinit.org/theory/acknowledgments.
-
- [1] The Abinit project: Impact, environment and recent developments.
- Computer Phys. Comm. 248, 107042 (2020).
- X.Gonze, B. Amadon, G. Antonius, F.Arnardi, L.Baguet, J.-M.Beuken,
- J.Bieder, F.Bottin, J.Bouchet, E.Bousquet, N.Brouwer, F.Bruneval,
- G.Brunin, T.Cavignac, J.-B. Charraud, Wei Chen, M.Cote, S.Cottenier,
- J.Denier, G.Geneste, Ph.Ghosez, M.Giantomassi, Y.Gillet, O.Gingras,
- D.R.Hamann, G.Hautier, Xu He, N.Helbig, N.Holzwarth, Y.Jia, F.Jollet,
- W.Lafargue-Dit-Hauret, K.Lejaeghere, M.A.L.Marques, A.Martin, C.Martins,
- H.P.C. Miranda, F.Naccarato, K. Persson, G.Petretto, V.Planes, Y.Pouillon,
- S.Prokhorenko, F.Ricci, G.-M.Rignanese, A.H.Romero, M.M.Schmitt, M.Torrent,
- M.J.van Setten, B.Van Troeye, M.J.Verstraete, G.Zerah and J.W.Zwanzig
- Comment: the fifth generic paper describing the ABINIT project.
- Note that a version of this paper, that is not formatted for Computer Phys. Comm. 
- is available at https://www.abinit.org/sites/default/files/ABINIT20.pdf .
- The licence allows the authors to put it on the Web.
- DOI and bibtex: see https://docs.abinit.org/theory/bibliography/#gonze2020
-
- [2] Optimized norm-conserving Vanderbilt pseudopotentials.
- D.R. Hamann, Phys. Rev. B 88, 085117 (2013).
- Comment: Some pseudopotential generated using the ONCVPSP code were used.
- DOI and bibtex: see https://docs.abinit.org/theory/bibliography/#hamann2013
-
- [3] ABINIT: Overview, and focus on selected capabilities
- J. Chem. Phys. 152, 124102 (2020).
- A. Romero, D.C. Allan, B. Amadon, G. Antonius, T. Applencourt, L.Baguet,
- J.Bieder, F.Bottin, J.Bouchet, E.Bousquet, F.Bruneval,
- G.Brunin, D.Caliste, M.Cote,
- J.Denier, C. Dreyer, Ph.Ghosez, M.Giantomassi, Y.Gillet, O.Gingras,
- D.R.Hamann, G.Hautier, F.Jollet, G. Jomard,
- A.Martin, 
- H.P.C. Miranda, F.Naccarato, G.Petretto, N.A. Pike, V.Planes,
- S.Prokhorenko, T. Rangel, F.Ricci, G.-M.Rignanese, M.Royo, M.Stengel, M.Torrent,
- M.J.van Setten, B.Van Troeye, M.J.Verstraete, J.Wiktor, J.W.Zwanziger, and X.Gonze.
- Comment: a global overview of ABINIT, with focus on selected capabilities .
- Note that a version of this paper, that is not formatted for J. Chem. Phys 
- is available at https://www.abinit.org/sites/default/files/ABINIT20_JPC.pdf .
- The licence allows the authors to put it on the Web.
- DOI and bibtex: see https://docs.abinit.org/theory/bibliography/#romero2020
-
- [4] Recent developments in the ABINIT software package.
- Computer Phys. Comm. 205, 106 (2016).
- X.Gonze, F.Jollet, F.Abreu Araujo, D.Adams, B.Amadon, T.Applencourt,
- C.Audouze, J.-M.Beuken, J.Bieder, A.Bokhanchuk, E.Bousquet, F.Bruneval
- D.Caliste, M.Cote, F.Dahm, F.Da Pieve, M.Delaveau, M.Di Gennaro,
- B.Dorado, C.Espejo, G.Geneste, L.Genovese, A.Gerossier, M.Giantomassi,
- Y.Gillet, D.R.Hamann, L.He, G.Jomard, J.Laflamme Janssen, S.Le Roux,
- A.Levitt, A.Lherbier, F.Liu, I.Lukacevic, A.Martin, C.Martins,
- M.J.T.Oliveira, S.Ponce, Y.Pouillon, T.Rangel, G.-M.Rignanese,
- A.H.Romero, B.Rousseau, O.Rubel, A.A.Shukri, M.Stankovski, M.Torrent,
- M.J.Van Setten, B.Van Troeye, M.J.Verstraete, D.Waroquier, J.Wiktor,
- B.Xu, A.Zhou, J.W.Zwanziger.
- Comment: the fourth generic paper describing the ABINIT project.
- Note that a version of this paper, that is not formatted for Computer Phys. Comm. 
- is available at https://www.abinit.org/sites/default/files/ABINIT16.pdf .
- The licence allows the authors to put it on the Web.
- DOI and bibtex: see https://docs.abinit.org/theory/bibliography/#gonze2016
-
- And optionally:
-
- [5] ABINIT: First-principles approach of materials and nanosystem properties.
- Computer Phys. Comm. 180, 2582-2615 (2009).
- X. Gonze, B. Amadon, P.-M. Anglade, J.-M. Beuken, F. Bottin, P. Boulanger, F. Bruneval,
- D. Caliste, R. Caracas, M. Cote, T. Deutsch, L. Genovese, Ph. Ghosez, M. Giantomassi
- S. Goedecker, D.R. Hamann, P. Hermet, F. Jollet, G. Jomard, S. Leroux, M. Mancini, S. Mazevet,
- M.J.T. Oliveira, G. Onida, Y. Pouillon, T. Rangel, G.-M. Rignanese, D. Sangalli, R. Shaltaf,
- M. Torrent, M.J. Verstraete, G. Zerah, J.W. Zwanziger
- Comment: the third generic paper describing the ABINIT project.
- Note that a version of this paper, that is not formatted for Computer Phys. Comm. 
- is available at https://www.abinit.org/sites/default/files/ABINIT_CPC_v10.pdf .
- The licence allows the authors to put it on the Web.
- DOI and bibtex: see https://docs.abinit.org/theory/bibliography/#gonze2009
-
- Proc.   0 individual time (sec): cpu=       4831.5  wall=       4838.6

================================================================================

 Calculation completed.
.Delivered   3 WARNINGs and   5 COMMENTs to log file.
+Overall time at end (sec) : cpu=       4831.5  wall=       4838.6
