
.Version 10.0.5 of ABINIT, released Apr 2024.
.(MPI version, prepared for a x86_64_linux_gnu13.2 computer) 

.Copyright (C) 1998-2024 ABINIT group . 
 ABINIT comes with ABSOLUTELY NO WARRANTY.
 It is free software, and you are welcome to redistribute it
 under certain conditions (GNU General Public License,
 see ~abinit/COPYING or http://www.gnu.org/copyleft/gpl.txt).

 ABINIT is a project of the Universite Catholique de Louvain,
 Corning Inc. and other collaborators, see ~abinit/doc/developers/contributors.txt .
 Please read https://docs.abinit.org/theory/acknowledgments for suggested
 acknowledgments of the ABINIT effort.
 For more information, see https://www.abinit.org .

.Starting date : Mon 10 Jun 2024.
- ( at 00h00 )
  
- input  file    -> gbs.abi
- output file    -> gbs.abo
- root for input  files -> gbsi
- root for output files -> gbso

 DATASET    1 : space group Cm m m (# 65); Bravais oC (1-face-center ortho.)
================================================================================
 Values of the parameters that define the memory need for DATASET  1.
     intxc =       0    ionmov =       0      iscf =       7    lmnmax =       4
     lnmax =       4     mgfft =     108  mpssoang =       2    mqgrid =    5231
     natom =       2  nloc_mem =       1    nspden =       1   nspinor =       1
    nsppol =       1      nsym =       8    n1xccc =    2501    ntypat =       1
    occopt =       1   xclevel =       2
-    mband =           5        mffmem =           1         mkmem =          50
       mpw =        1336          nfft =       27648          nkpt =          50
================================================================================
P This job should need less than                      15.631 Mbytes of memory.
  Rough estimation (10% accuracy) of disk space for files :
_ WF disk file :      5.098 Mbytes ; DEN or POT disk file :      0.213 Mbytes.
================================================================================

 DATASET    2 : space group Cm m m (# 65); Bravais oC (1-face-center ortho.)
================================================================================
 Values of the parameters that define the memory need for DATASET  2.
     intxc =       0    ionmov =       0      iscf =      -2    lmnmax =       4
     lnmax =       4     mgfft =     108  mpssoang =       2    mqgrid =    5231
     natom =       2  nloc_mem =       1    nspden =       1   nspinor =       1
    nsppol =       1      nsym =       8    n1xccc =    2501    ntypat =       1
    occopt =       1   xclevel =       2
-    mband =           8        mffmem =           1         mkmem =          38
       mpw =        1331          nfft =       27648          nkpt =          38
================================================================================
P This job should need less than                      13.053 Mbytes of memory.
  Rough estimation (10% accuracy) of disk space for files :
_ WF disk file :      6.176 Mbytes ; DEN or POT disk file :      0.213 Mbytes.
================================================================================

--------------------------------------------------------------------------------
------------- Echo of variables that govern the present computation ------------
--------------------------------------------------------------------------------
-
- outvars: echo of selected default values                                      
-   iomode0 =  0 , fftalg0 =112 , wfoptalg0 =  0
-
- outvars: echo of global parameters not present in the input file              
-  max_nthreads =    0
-
 -outvars: echo values of preprocessed input variables --------
            acell      1.0000000000E+00  1.0000000000E+00  1.0000000000E+00 Bohr
              amu      1.20110000E+01
           diemac      1.00000000E+01
             ecut      1.50000000E+01 Hartree
           enunit1          0
           enunit2          1
-          fftalg         112
           getden1          0
           getden2         -1
             iscf1          7
             iscf2         -2
           istwfk2       3    0    0    0    0    0    0    0    0    0
                         2    0    0    0    0    0    0    0    0    0
                         8    0    0    0    0    0    0    0    0    0
                         0    0    0    0    0    0    0    0
              ixc          11
           jdtset        1    2
              kpt1    -1.25000000E-01  0.00000000E+00  0.00000000E+00
                      -1.25000000E-01  0.00000000E+00  2.50000000E-01
                      -2.50000000E-01  0.00000000E+00  1.25000000E-01
                      -1.25000000E-01  1.25000000E-01  1.25000000E-01
                      -3.75000000E-01  0.00000000E+00  0.00000000E+00
                      -2.50000000E-01  1.25000000E-01  0.00000000E+00
                      -1.25000000E-01  0.00000000E+00  5.00000000E-01
                      -2.50000000E-01  0.00000000E+00  3.75000000E-01
                      -1.25000000E-01  1.25000000E-01  3.75000000E-01
                      -3.75000000E-01  0.00000000E+00  2.50000000E-01
                      -2.50000000E-01  1.25000000E-01  2.50000000E-01
                       5.00000000E-01  0.00000000E+00  1.25000000E-01
                      -3.75000000E-01  1.25000000E-01  1.25000000E-01
                      -2.50000000E-01  2.50000000E-01  1.25000000E-01
                       5.00000000E-01  1.25000000E-01  0.00000000E+00
                      -3.75000000E-01  2.50000000E-01  0.00000000E+00
                      -3.75000000E-01  0.00000000E+00  5.00000000E-01
                      -2.50000000E-01  1.25000000E-01  5.00000000E-01
                       5.00000000E-01  0.00000000E+00  3.75000000E-01
                      -3.75000000E-01  1.25000000E-01  3.75000000E-01
                      -2.50000000E-01  2.50000000E-01  3.75000000E-01
                       5.00000000E-01  1.25000000E-01  2.50000000E-01
                      -3.75000000E-01  2.50000000E-01  2.50000000E-01
                       3.75000000E-01  1.25000000E-01  1.25000000E-01
                       5.00000000E-01  2.50000000E-01  1.25000000E-01
                      -3.75000000E-01  3.75000000E-01  1.25000000E-01
                       2.50000000E-01  1.25000000E-01  0.00000000E+00
                       3.75000000E-01  2.50000000E-01  0.00000000E+00
                       5.00000000E-01  3.75000000E-01  0.00000000E+00
                       5.00000000E-01  1.25000000E-01  5.00000000E-01
                      -3.75000000E-01  2.50000000E-01  5.00000000E-01
                       3.75000000E-01  1.25000000E-01  3.75000000E-01
                       5.00000000E-01  2.50000000E-01  3.75000000E-01
                      -3.75000000E-01  3.75000000E-01  3.75000000E-01
                       2.50000000E-01  1.25000000E-01  2.50000000E-01
                       3.75000000E-01  2.50000000E-01  2.50000000E-01
                       5.00000000E-01  3.75000000E-01  2.50000000E-01
                       0.00000000E+00  0.00000000E+00  1.25000000E-01
                       1.25000000E-01  1.25000000E-01  1.25000000E-01
                       2.50000000E-01  2.50000000E-01  1.25000000E-01
                       3.75000000E-01  3.75000000E-01  1.25000000E-01
                       5.00000000E-01  5.00000000E-01  1.25000000E-01
                       2.50000000E-01  1.25000000E-01  5.00000000E-01
                       3.75000000E-01  2.50000000E-01  5.00000000E-01
                       5.00000000E-01  3.75000000E-01  5.00000000E-01
                       0.00000000E+00  0.00000000E+00  3.75000000E-01
                       1.25000000E-01  1.25000000E-01  3.75000000E-01
                       2.50000000E-01  2.50000000E-01  3.75000000E-01
                       3.75000000E-01  3.75000000E-01  3.75000000E-01
                       5.00000000E-01  5.00000000E-01  3.75000000E-01
              kpt2     5.00000000E-01  0.00000000E+00  0.00000000E+00
                       4.50000000E-01  0.00000000E+00  0.00000000E+00
                       4.00000000E-01  0.00000000E+00  0.00000000E+00
                       3.50000000E-01  0.00000000E+00  0.00000000E+00
                       3.00000000E-01  0.00000000E+00  0.00000000E+00
                       2.50000000E-01  0.00000000E+00  0.00000000E+00
                       2.00000000E-01  0.00000000E+00  0.00000000E+00
                       1.50000000E-01  0.00000000E+00  0.00000000E+00
                       1.00000000E-01  0.00000000E+00  0.00000000E+00
                       5.00000000E-02  0.00000000E+00  0.00000000E+00
                       0.00000000E+00  0.00000000E+00  0.00000000E+00
                       0.00000000E+00  5.00000000E-02  5.00000000E-02
                       0.00000000E+00  1.00000000E-01  1.00000000E-01
                       0.00000000E+00  1.50000000E-01  1.50000000E-01
                       0.00000000E+00  2.00000000E-01  2.00000000E-01
                       0.00000000E+00  2.50000000E-01  2.50000000E-01
                       0.00000000E+00  3.00000000E-01  3.00000000E-01
                       0.00000000E+00  3.50000000E-01  3.50000000E-01
                       0.00000000E+00  4.00000000E-01  4.00000000E-01
                       0.00000000E+00  4.50000000E-01  4.50000000E-01
                       0.00000000E+00  5.00000000E-01  5.00000000E-01
                       5.88235294E-02  5.29411765E-01  5.29411765E-01
                       1.17647059E-01  5.58823529E-01  5.58823529E-01
                       1.76470588E-01  5.88235294E-01  5.88235294E-01
                       2.35294118E-01  6.17647059E-01  6.17647059E-01
                       2.94117647E-01  6.47058824E-01  6.47058824E-01
                       3.52941176E-01  6.76470588E-01  6.76470588E-01
                       4.11764706E-01  7.05882353E-01  7.05882353E-01
                       4.70588235E-01  7.35294118E-01  7.35294118E-01
                       5.29411765E-01  7.64705882E-01  7.64705882E-01
                       5.88235294E-01  7.94117647E-01  7.94117647E-01
                       6.47058824E-01  8.23529412E-01  8.23529412E-01
                       7.05882353E-01  8.52941176E-01  8.52941176E-01
                       7.64705882E-01  8.82352941E-01  8.82352941E-01
                       8.23529412E-01  9.11764706E-01  9.11764706E-01
                       8.82352941E-01  9.41176471E-01  9.41176471E-01
                       9.41176471E-01  9.70588235E-01  9.70588235E-01
                       1.00000000E+00  1.00000000E+00  1.00000000E+00
           kptopt1          1
           kptopt2         -3
         kptrlatt        0    8    0     -8    8    0     -4    4    4
          kptrlen1     3.40800000E+01
          kptrlen2     3.00000000E+01
P           mkmem1         50
P           mkmem2         38
            natom           2
            nband1          5
            nband2          8
           nbdbuf1          0
           nbdbuf2          2
           ndtset           2
           ndivsm1          0
           ndivsm2         10
            ngfft          16      16     108
             nkpt1         50
             nkpt2         38
            nstep          20
             nsym           8
           ntypat           1
              occ      2.000000  2.000000  2.000000  2.000000  0.000000
            rprim      2.1300000000E+00  3.6900000000E+00  0.0000000000E+00
                      -2.1300000000E+00  3.6900000000E+00  0.0000000000E+00
                       0.0000000000E+00  0.0000000000E+00  3.0000000000E+01
           shiftk1     0.00000000E+00  0.00000000E+00  5.00000000E-01
           shiftk2     5.00000000E-01  5.00000000E-01  5.00000000E-01
          spgroup          65
           symrel      1  0  0   0  1  0   0  0  1      -1  0  0   0 -1  0   0  0 -1
                       0 -1  0  -1  0  0   0  0 -1       0  1  0   1  0  0   0  0  1
                      -1  0  0   0 -1  0   0  0  1       1  0  0   0  1  0   0  0 -1
                       0  1  0   1  0  0   0  0 -1       0 -1  0  -1  0  0   0  0  1
           toldfe1     1.00000000E-08 Hartree
           toldfe2     0.00000000E+00 Hartree
           tolwfr1     0.00000000E+00
           tolwfr2     1.00000000E-12
            typat      1  1
              wtk1       0.01563    0.03125    0.03125    0.01563    0.01563    0.01563
                         0.01563    0.03125    0.01563    0.03125    0.03125    0.01563
                         0.03125    0.01563    0.01563    0.01563    0.01563    0.01563
                         0.01563    0.03125    0.01563    0.03125    0.03125    0.03125
                         0.03125    0.01563    0.01563    0.01563    0.01563    0.01563
                         0.01563    0.03125    0.03125    0.01563    0.03125    0.03125
                         0.03125    0.00781    0.01563    0.01563    0.01563    0.00781
                         0.01563    0.01563    0.01563    0.00781    0.01563    0.01563
                         0.01563    0.00781
              wtk2       1.00000    1.00000    1.00000    1.00000    1.00000    1.00000
                         1.00000    1.00000    1.00000    1.00000    1.00000    1.00000
                         1.00000    1.00000    1.00000    1.00000    1.00000    1.00000
                         1.00000    1.00000    1.00000    1.00000    1.00000    1.00000
                         1.00000    1.00000    1.00000    1.00000    1.00000    1.00000
                         1.00000    1.00000    1.00000    1.00000    1.00000    1.00000
                         1.00000    1.00000
           xangst      1.5169371898E-17  1.2887581738E+00  0.0000000000E+00
                      -3.7130298372E-18  2.6165696256E+00  0.0000000000E+00
            xcart      2.8665958496E-17  2.4354000000E+00  0.0000000000E+00
                      -7.0166095156E-18  4.9446000000E+00  0.0000000000E+00
             xred      3.3000000000E-01  3.3000000000E-01  0.0000000000E+00
                       6.7000000000E-01  6.7000000000E-01  0.0000000000E+00
            znucl        6.00000

================================================================================

 chkinp: Checking input parameters for consistency, jdtset=   1.

 chkinp: Checking input parameters for consistency, jdtset=   2.

================================================================================
== DATASET  1 ==================================================================
-   mpi_nproc: 1, omp_nthreads: -1 (-1 if OMP is not activated)


--- !DatasetInfo
iteration_state: {dtset: 1, }
dimensions: {natom: 2, nkpt: 50, mband: 5, nsppol: 1, nspinor: 1, nspden: 1, mpw: 1336, }
cutoff_energies: {ecut:  15.0, pawecutdg:  -1.0, }
electrons: {nelect:   8.00000000E+00, charge:   0.00000000E+00, occopt:   1.00000000E+00, tsmear:   1.00000000E-02, }
meta: {optdriver: 0, ionmov: 0, optcell: 0, iscf: 7, paral_kgb: 0, }
...

 Exchange-correlation functional for the present dataset will be:
  GGA: Perdew-Burke-Ernzerhof functional - ixc=11
 Citation for XC functional:
  J.P.Perdew, K.Burke, M.Ernzerhof, PRL 77, 3865 (1996)

 Real(R)+Recip(G) space primitive vectors, cartesian coordinates (Bohr,Bohr^-1):
 R(1)=  2.1300000  3.6900000  0.0000000  G(1)=  0.2347418  0.1355014  0.0000000
 R(2)= -2.1300000  3.6900000  0.0000000  G(2)= -0.2347418  0.1355014  0.0000000
 R(3)=  0.0000000  0.0000000 30.0000000  G(3)=  0.0000000  0.0000000  0.0333333
 Unit cell volume ucvol=  4.7158200E+02 bohr^3
 Angles (23,13,12)=  9.00000000E+01  9.00000000E+01  5.99901592E+01 degrees

 getcut: wavevector=  0.0000  0.0000  0.0000  ngfft=  16  16 108
         ecut(hartree)=     15.000   => boxcut(ratio)=   2.06487

--- Pseudopotential description ------------------------------------------------
- pspini: atom type   1  psp file is /home/hrishi/abinit-10.0.5/Pseudopotentials/C.psp8
- pspatm: opening atomic psp file    /home/hrishi/abinit-10.0.5/Pseudopotentials/C.psp8
- C     ONCVPSP-3.2.3.1  r_core=   1.20440   1.26326
-  6.00000   4.00000    170503                znucl, zion, pspdat
    8   11    1    4       600   0.00000      pspcod,pspxc,lmax,lloc,mmax,r2well
    5.99000000000000    4.00000000000000    0.00000000000000   rchrg,fchrg,qchrg
     nproj     2     2
     extension_switch     1
  pspatm : epsatm=    4.31347020
         --- l  ekb(1:nproj) -->
             0    6.481548    0.385504
             1   -4.199961   -0.877517
 pspatm: atomic psp has been read  and splines computed

   6.90155232E+01                                ecore*ucvol(ha*bohr**3)
--------------------------------------------------------------------------------

_setup2: Arith. and geom. avg. npw (full set) are    1308.586    1308.560

================================================================================

--- !BeginCycle
iteration_state: {dtset: 1, }
solver: {iscf: 7, nstep: 20, nline: 4, wfoptalg: 0, }
tolerances: {toldfe: 1.00E-08, }
...

     iter   Etot(hartree)      deltaE(h)  residm     vres2
 ETOT  1  -11.810721555291    -1.181E+01 1.965E-01 2.208E+02
 ETOT  2  -11.871340777634    -6.062E-02 1.584E-02 1.101E+02
 ETOT  3  -11.872665178130    -1.324E-03 7.255E-03 6.224E+01
 ETOT  4  -11.873277655383    -6.125E-04 2.407E-04 3.171E+01
 ETOT  5  -11.873377329487    -9.967E-05 8.814E-05 2.090E+01
 ETOT  6  -11.873421958449    -4.463E-05 3.595E-05 1.219E+01
 ETOT  7  -11.873437072937    -1.511E-05 4.757E-05 6.875E+00
 ETOT  8  -11.873440127262    -3.054E-06 1.738E-04 4.950E+00
 ETOT  9  -11.873442157768    -2.031E-06 7.366E-05 2.540E+00
 ETOT 10  -11.873442813882    -6.561E-07 1.442E-04 1.182E+00
 ETOT 11  -11.873442818163    -4.282E-09 1.440E-04 9.747E-01
 ETOT 12  -11.873442724522     9.364E-08 8.455E-04 1.372E-01
 ETOT 13  -11.873442747942    -2.342E-08 5.752E-04 1.265E-01
 ETOT 14  -11.873442834881    -8.694E-08 9.523E-04 5.155E-02
 ETOT 15  -11.873442846792    -1.191E-08 3.996E-04 1.017E-02
 ETOT 16  -11.873442844778     2.014E-09 3.274E-04 2.301E-03
 ETOT 17  -11.873442849760    -4.983E-09 3.378E-04 5.699E-04

 At SCF step   17, etot is converged : 
  for the second time, diff in etot=  4.983E-09 < toldfe=  1.000E-08

 Cartesian components of stress tensor (hartree/bohr^3)
  sigma(1 1)= -8.68127846E-04  sigma(3 2)=  0.00000000E+00
  sigma(2 2)= -6.73247843E-04  sigma(3 1)=  0.00000000E+00
  sigma(3 3)=  5.79015151E-04  sigma(2 1)=  0.00000000E+00


--- !ResultsGS
iteration_state: {dtset: 1, }
comment   : Summary of ground state results
lattice_vectors:
- [  2.1300000,   3.6900000,   0.0000000, ]
- [ -2.1300000,   3.6900000,   0.0000000, ]
- [  0.0000000,   0.0000000,  30.0000000, ]
lattice_lengths: [   4.26063,    4.26063,   30.00000, ]
lattice_angles: [ 90.000,  90.000,  59.990, ] # degrees, (23, 13, 12)
lattice_volume:   4.7158200E+02
convergence: {deltae: -4.983E-09, res2:  5.699E-04, residm:  3.378E-04, diffor: null, }
etotal    :  -1.18734428E+01
entropy   :   0.00000000E+00
fermie    :  -8.28532413E-02
cartesian_stress_tensor: # hartree/bohr^3
- [ -8.68127846E-04,   0.00000000E+00,   0.00000000E+00, ]
- [  0.00000000E+00,  -6.73247843E-04,   0.00000000E+00, ]
- [  0.00000000E+00,   0.00000000E+00,   5.79015151E-04, ]
pressure_GPa:   9.4379E+00
xred      :
- [  3.3000E-01,   3.3000E-01,   0.0000E+00,  C]
- [  6.7000E-01,   6.7000E-01,   0.0000E+00,  C]
cartesian_forces: # hartree/bohr
- [ -2.49649716E-18,   5.89061362E-02,  -0.00000000E+00, ]
- [  2.49649716E-18,  -5.89061362E-02,  -0.00000000E+00, ]
force_length_stats: {min:   5.89061362E-02, max:   5.89061362E-02, mean:   5.89061362E-02, }
...

 Integrated electronic density in atomic spheres:
 ------------------------------------------------
 Atom  Sphere_radius  Integrated_density
    1        2.00000          5.58142642
    2        2.00000          5.58142642
================================================================================

 ----iterations are completed or convergence reached----

 Mean square residual over all n,k,spin=   26.878E-07; max=  33.781E-05
 reduced coordinates (array xred) for    2 atoms
       0.330000000000      0.330000000000      0.000000000000
       0.670000000000      0.670000000000      0.000000000000
 rms dE/dt=  1.7748E-01; max dE/dt=  2.1736E-01; dE/dt below (all hartree)
    1      -0.217363642443     -0.217363642443      0.000000000000
    2       0.217363642443      0.217363642443      0.000000000000

 cartesian coordinates (angstrom) at end:
    1      0.00000000000000     1.28875817380009     0.00000000000000
    2     -0.00000000000000     2.61656962559411     0.00000000000000

 cartesian forces (hartree/bohr) at end:
    1     -0.00000000000000     0.05890613616354    -0.00000000000000
    2      0.00000000000000    -0.05890613616354    -0.00000000000000
 frms,max,avg= 3.4009474E-02 5.8906136E-02   0.000E+00  0.000E+00  0.000E+00 h/b

 cartesian forces (eV/Angstrom) at end:
    1     -0.00000000000000     3.02907505621148    -0.00000000000000
    2      0.00000000000000    -3.02907505621148    -0.00000000000000
 frms,max,avg= 1.7488373E+00 3.0290751E+00   0.000E+00  0.000E+00  0.000E+00 e/A
 length scales=  1.000000000000  1.000000000000  1.000000000000 bohr
              =  0.529177208590  0.529177208590  0.529177208590 angstroms
 prteigrs : about to open file gbso_DS1_EIG
 Fermi (or HOMO) energy (hartree) =  -0.08285   Average Vxc (hartree)=  -0.11102
 Eigenvalues (hartree) for nkpt=  50  k points:
 kpt#   1, nband=  5, wtk=  0.01563, kpt= -0.1250  0.0000  0.0000 (reduced coord)
  -0.83829   -0.37817   -0.21588   -0.16704    0.06211
 prteigrs : prtvol=0 or 1, do not print more k-points.


--- !EnergyTerms
iteration_state     : {dtset: 1, }
comment             : Components of total free energy in Hartree
kinetic             :  8.86196374832437E+00
hartree             :  5.14595684797488E+01
xc                  : -4.47633765038709E+00
Ewald energy        :  4.23409993050282E+01
psp_core            :  1.46348934433500E-01
local_psp           : -1.09796432214753E+02
non_local_psp       : -4.09553452155633E-01
total_energy        : -1.18734428497604E+01
total_energy_eV     : -3.23092811124604E+02
band_energy         : -3.37357195473689E+00
...


 Cartesian components of stress tensor (hartree/bohr^3)
  sigma(1 1)= -8.68127846E-04  sigma(3 2)=  0.00000000E+00
  sigma(2 2)= -6.73247843E-04  sigma(3 1)=  0.00000000E+00
  sigma(3 3)=  5.79015151E-04  sigma(2 1)=  0.00000000E+00

-Cartesian components of stress tensor (GPa)         [Pressure=  9.4379E+00 GPa]
- sigma(1 1)= -2.55411987E+01  sigma(3 2)=  0.00000000E+00
- sigma(2 2)= -1.98076321E+01  sigma(3 1)=  0.00000000E+00
- sigma(3 3)=  1.70352110E+01  sigma(2 1)=  0.00000000E+00

================================================================================
== DATASET  2 ==================================================================
-   mpi_nproc: 1, omp_nthreads: -1 (-1 if OMP is not activated)


--- !DatasetInfo
iteration_state: {dtset: 2, }
dimensions: {natom: 2, nkpt: 38, mband: 8, nsppol: 1, nspinor: 1, nspden: 1, mpw: 1331, }
cutoff_energies: {ecut:  15.0, pawecutdg:  -1.0, }
electrons: {nelect:   8.00000000E+00, charge:   0.00000000E+00, occopt:   1.00000000E+00, tsmear:   1.00000000E-02, }
meta: {optdriver: 0, ionmov: 0, optcell: 0, iscf: -2, paral_kgb: 0, }
...

 mkfilename : getden/=0, take file _DEN from output of DATASET   1.

 Exchange-correlation functional for the present dataset will be:
  GGA: Perdew-Burke-Ernzerhof functional - ixc=11
 Citation for XC functional:
  J.P.Perdew, K.Burke, M.Ernzerhof, PRL 77, 3865 (1996)

 Real(R)+Recip(G) space primitive vectors, cartesian coordinates (Bohr,Bohr^-1):
 R(1)=  2.1300000  3.6900000  0.0000000  G(1)=  0.2347418  0.1355014  0.0000000
 R(2)= -2.1300000  3.6900000  0.0000000  G(2)= -0.2347418  0.1355014  0.0000000
 R(3)=  0.0000000  0.0000000 30.0000000  G(3)=  0.0000000  0.0000000  0.0333333
 Unit cell volume ucvol=  4.7158200E+02 bohr^3
 Angles (23,13,12)=  9.00000000E+01  9.00000000E+01  5.99901592E+01 degrees

 getcut: wavevector=  0.0000  0.0000  0.0000  ngfft=  16  16 108
         ecut(hartree)=     15.000   => boxcut(ratio)=   2.06487
--------------------------------------------------------------------------------


================================================================================
 prteigrs : about to open file gbso_DS2_EIG
 Non-SCF case, kpt    1 (  0.50000  0.00000  0.00000), residuals and eigenvalues=
  4.69E-13  6.22E-13  2.68E-13  5.16E-13  9.44E-13  5.41E-13  2.62E-13  6.99E-13
 -6.0966E-01 -6.0886E-01 -3.0243E-01 -1.4465E-01  1.7962E-02  3.3222E-01
  3.8897E-01  3.9299E-01
 Non-SCF case, kpt    2 (  0.45000  0.00000  0.00000), residuals and eigenvalues=
  4.02E-13  3.75E-13  4.32E-13  4.87E-13  8.25E-13  8.80E-13  7.20E-09  2.65E-09
 -6.5385E-01 -5.6015E-01 -2.9939E-01 -1.6324E-01  4.2301E-02  3.2183E-01
  3.3706E-01  3.6241E-01
 Non-SCF case, kpt    3 (  0.40000  0.00000  0.00000), residuals and eigenvalues=
  8.71E-13  3.92E-13  1.86E-13  1.91E-13  6.05E-13  4.97E-13  4.75E-11  2.57E-10
 -6.9454E-01 -5.0822E-01 -2.9056E-01 -2.0253E-01  9.5652E-02  2.6501E-01
  3.0222E-01  3.1367E-01
 Non-SCF case, kpt    4 (  0.35000  0.00000  0.00000), residuals and eigenvalues=
  7.18E-13  7.12E-13  5.05E-13  3.08E-13  9.83E-13  7.01E-13  2.86E-12  3.50E-12
 -7.3117E-01 -4.5313E-01 -2.7745E-01 -2.4469E-01  1.6027E-01  2.1269E-01
  2.4920E-01  2.6006E-01
 Non-SCF case, kpt    5 (  0.30000  0.00000  0.00000), residuals and eigenvalues=
  6.27E-13  2.76E-13  6.63E-13  6.04E-13  4.86E-13  5.86E-13  6.86E-13  1.60E-06
 -7.6287E-01 -3.9693E-01 -2.8392E-01 -2.5865E-01  1.6710E-01  1.9925E-01
  2.1335E-01  2.3329E-01
 Non-SCF case, kpt    6 (  0.25000  0.00000  0.00000), residuals and eigenvalues=
  8.54E-13  4.73E-13  4.78E-13  3.79E-13  8.43E-13  6.64E-13  5.41E-13  5.26E-11
 -7.9042E-01 -3.4074E-01 -3.1813E-01 -2.3567E-01  1.2836E-01  1.6176E-01
  1.7377E-01  2.3420E-01
 Non-SCF case, kpt    7 (  0.20000  0.00000  0.00000), residuals and eigenvalues=
  4.71E-13  5.63E-13  5.64E-13  3.58E-13  4.92E-13  6.05E-13  5.52E-13  3.02E-11
 -8.1334E-01 -3.4667E-01 -2.8617E-01 -2.0930E-01  9.6578E-02  1.2971E-01
  1.4137E-01  2.0259E-01
 Non-SCF case, kpt    8 (  0.15000  0.00000  0.00000), residuals and eigenvalues=
  9.45E-13  2.45E-13  8.21E-13  4.15E-13  5.91E-13  9.23E-13  8.53E-13  2.12E-12
 -8.3146E-01 -3.6945E-01 -2.3756E-01 -1.8116E-01  7.1833E-02  1.0463E-01
  1.1617E-01  1.7764E-01
 Non-SCF case, kpt    9 (  0.10000  0.00000  0.00000), residuals and eigenvalues=
  5.68E-13  6.86E-13  8.59E-13  6.12E-13  6.41E-13  8.40E-13  9.06E-13  7.52E-13
 -8.4431E-01 -3.8553E-01 -1.9719E-01 -1.5397E-01  5.4162E-02  8.6707E-02
  9.8177E-02  1.5980E-01
 Non-SCF case, kpt   10 (  0.05000  0.00000  0.00000), residuals and eigenvalues=
  9.27E-13  4.07E-13  4.11E-13  1.64E-13  4.88E-13  3.84E-13  7.33E-13  3.02E-12
 -8.5192E-01 -3.9520E-01 -1.7203E-01 -1.3312E-01  4.3574E-02  7.5947E-02
  8.7386E-02  1.4909E-01
 Non-SCF case, kpt   11 (  0.00000  0.00000  0.00000), residuals and eigenvalues=
  7.13E-13  2.83E-13  8.29E-13  2.82E-13  3.14E-13  3.98E-13  7.62E-13  1.19E-12
 -8.5465E-01 -3.9873E-01 -1.6221E-01 -1.2478E-01  4.0038E-02  7.2337E-02
  8.3788E-02  1.4549E-01
 Non-SCF case, kpt   12 (  0.00000  0.05000  0.05000), residuals and eigenvalues=
  6.70E-13  6.79E-13  2.23E-13  9.42E-13  4.27E-13  7.60E-13  8.39E-13  8.71E-13
 -8.5188E-01 -3.9509E-01 -1.7212E-01 -1.3337E-01  4.3595E-02  7.5601E-02
  8.7884E-02  1.4827E-01
 Non-SCF case, kpt   13 (  0.00000  0.10000  0.10000), residuals and eigenvalues=
  9.36E-13  9.62E-13  4.37E-13  4.34E-13  5.31E-13  1.99E-13  2.60E-13  5.32E-13
 -8.4430E-01 -3.8545E-01 -1.9758E-01 -1.5386E-01  5.4240E-02  8.5465E-02
  1.0000E-01  1.5679E-01
 Non-SCF case, kpt   14 (  0.00000  0.15000  0.15000), residuals and eigenvalues=
  6.54E-13  5.61E-13  7.20E-13  9.81E-13  5.11E-13  5.18E-13  4.67E-13  8.89E-13
 -8.3131E-01 -3.6913E-01 -2.3732E-01 -1.8113E-01  7.2005E-02  1.0227E-01
  1.1985E-01  1.7165E-01
 Non-SCF case, kpt   15 (  0.00000  0.20000  0.20000), residuals and eigenvalues=
  3.86E-13  3.34E-13  6.14E-13  8.08E-13  8.98E-13  2.19E-13  8.55E-13  8.27E-13
 -8.1352E-01 -3.4669E-01 -2.8646E-01 -2.0933E-01  9.6832E-02  1.2619E-01
  1.4717E-01  1.9322E-01
 Non-SCF case, kpt   16 (  0.00000  0.25000  0.25000), residuals and eigenvalues=
  7.34E-13  4.56E-13  6.54E-13  4.26E-13  3.52E-13  6.82E-13  7.35E-12  1.18E-10
 -7.9040E-01 -3.4066E-01 -3.1810E-01 -2.3566E-01  1.2872E-01  1.5730E-01
  1.8174E-01  2.2166E-01
 Non-SCF case, kpt   17 (  0.00000  0.30000  0.30000), residuals and eigenvalues=
  5.82E-13  8.69E-13  9.58E-13  2.87E-13  9.61E-13  3.75E-13  2.01E-11  4.51E-06
 -7.6295E-01 -3.9716E-01 -2.8373E-01 -2.5871E-01  1.6753E-01  1.9482E-01
  2.2077E-01  2.3590E-01
 Non-SCF case, kpt   18 (  0.00000  0.35000  0.35000), residuals and eigenvalues=
  3.48E-13  8.05E-13  1.43E-13  4.95E-13  3.76E-13  3.08E-13  5.19E-12  3.56E-09
 -7.3115E-01 -4.5366E-01 -2.7737E-01 -2.4474E-01  1.6077E-01  2.1318E-01
  2.4284E-01  2.7330E-01
 Non-SCF case, kpt   19 (  0.00000  0.40000  0.40000), residuals and eigenvalues=
  5.85E-13  4.71E-13  2.18E-13  1.80E-13  8.40E-13  3.85E-13  7.86E-12  8.24E-07
 -6.9432E-01 -5.0805E-01 -2.9045E-01 -2.0292E-01  9.5700E-02  2.6551E-01
  2.9577E-01  3.2845E-01
 Non-SCF case, kpt   20 (  0.00000  0.45000  0.45000), residuals and eigenvalues=
  4.83E-13  5.87E-13  7.36E-13  8.46E-13  4.60E-13  4.02E-13  4.45E-09  5.07E-11
 -6.5414E-01 -5.6022E-01 -2.9907E-01 -1.6437E-01  4.2133E-02  3.2200E-01
  3.3722E-01  3.5621E-01
 Non-SCF case, kpt   21 (  0.00000  0.50000  0.50000), residuals and eigenvalues=
  4.02E-13  9.26E-13  6.72E-13  4.91E-13  4.41E-13  9.39E-13  4.21E-13  2.22E-12
 -6.0954E-01 -6.0884E-01 -3.0171E-01 -1.4517E-01  1.8705E-02  3.3278E-01
  3.8936E-01  3.9344E-01
 Non-SCF case, kpt   22 (  0.05882  0.52941  0.52941), residuals and eigenvalues=
  9.90E-13  2.48E-13  3.66E-13  8.06E-13  6.34E-13  4.25E-13  6.81E-13  7.00E-13
 -6.0699E-01 -6.0650E-01 -3.1385E-01 -1.4139E-01  1.8450E-02  3.4832E-01
  3.9272E-01  3.9698E-01
 Non-SCF case, kpt   23 (  0.11765  0.55882  0.55882), residuals and eigenvalues=
  8.65E-13  3.38E-13  4.08E-13  7.05E-13  5.22E-13  3.05E-13  8.24E-13  4.70E-13
 -6.0024E-01 -5.9924E-01 -3.4554E-01 -1.3124E-01  1.7772E-02  3.9068E-01
  4.0311E-01  4.0798E-01
 Non-SCF case, kpt   24 (  0.17647  0.58824  0.58824), residuals and eigenvalues=
  2.71E-13  5.24E-13  3.78E-13  4.17E-13  5.73E-13  9.28E-13  4.62E-13  9.05E-13
 -5.8935E-01 -5.8663E-01 -3.8966E-01 -1.1424E-01  1.3806E-02  4.1541E-01
  4.1891E-01  4.2347E-01
 Non-SCF case, kpt   25 (  0.23529  0.61765  0.61765), residuals and eigenvalues=
  3.16E-13  4.43E-13  3.02E-13  6.69E-13  3.86E-13  9.00E-13  1.48E-10  1.34E-10
 -5.7432E-01 -5.6970E-01 -4.4018E-01 -9.0173E-02  2.3397E-03  3.8594E-01
  4.4169E-01  4.4683E-01
 Non-SCF case, kpt   26 (  0.29412  0.64706  0.64706), residuals and eigenvalues=
  3.66E-13  3.08E-13  2.67E-13  7.89E-13  2.03E-13  4.42E-13  8.71E-10  8.53E-08
 -5.5474E-01 -5.4919E-01 -4.9007E-01 -6.0185E-02 -2.0030E-02  3.6444E-01
  4.6995E-01  4.7470E-01
 Non-SCF case, kpt   27 (  0.35294  0.67647  0.67647), residuals and eigenvalues=
  5.22E-13  2.67E-13  9.58E-13  9.47E-13  2.36E-13  4.72E-13  6.23E-08  9.72E-06
 -5.5398E-01 -5.3065E-01 -5.1040E-01 -5.7581E-02 -2.0765E-02  3.6022E-01
  4.7100E-01  5.0200E-01
 Non-SCF case, kpt   28 (  0.41176  0.70588  0.70588), residuals and eigenvalues=
  3.26E-13  7.20E-13  3.31E-13  4.56E-13  9.74E-13  6.49E-13  2.52E-13  1.57E-11
 -5.9973E-01 -5.0409E-01 -4.8373E-01 -1.0043E-01  2.2006E-02  3.6794E-01
  4.0220E-01  4.4840E-01
 Non-SCF case, kpt   29 (  0.47059  0.73529  0.73529), residuals and eigenvalues=
  3.23E-13  3.30E-13  3.60E-13  8.00E-13  7.79E-13  5.46E-13  9.87E-13  7.69E-12
 -6.4537E-01 -4.7284E-01 -4.4926E-01 -1.4789E-01  7.1349E-02  3.3540E-01
  3.5514E-01  3.8711E-01
 Non-SCF case, kpt   30 (  0.52941  0.76471  0.76471), residuals and eigenvalues=
  3.82E-13  3.16E-13  2.79E-13  3.49E-13  5.73E-13  4.16E-13  2.62E-13  4.62E-13
 -6.8762E-01 -4.3748E-01 -4.1083E-01 -1.9535E-01  1.2609E-01  2.7427E-01
  3.0327E-01  3.2795E-01
 Non-SCF case, kpt   31 (  0.58824  0.79412  0.79412), residuals and eigenvalues=
  7.28E-13  3.64E-13  9.66E-13  2.50E-13  5.37E-13  6.69E-13  2.86E-13  8.78E-13
 -7.2591E-01 -3.9822E-01 -3.6936E-01 -2.4008E-01  1.8538E-01  2.1972E-01
  2.5012E-01  2.7204E-01
 Non-SCF case, kpt   32 (  0.64706  0.82353  0.82353), residuals and eigenvalues=
  8.13E-13  8.62E-13  4.55E-13  2.40E-13  4.77E-13  6.90E-13  1.94E-10  2.02E-04
 -7.5942E-01 -3.5586E-01 -3.2614E-01 -2.8051E-01  1.7220E-01  2.0299E-01
  2.2267E-01  2.5003E-01
 Non-SCF case, kpt   33 (  0.70588  0.85294  0.85294), residuals and eigenvalues=
  6.31E-13  2.40E-13  5.15E-13  9.38E-13  6.26E-13  9.57E-13  7.29E-12  6.59E-10
 -7.8789E-01 -3.1587E-01 -3.1136E-01 -2.8221E-01  1.3188E-01  1.6299E-01
  1.8058E-01  2.3205E-01
 Non-SCF case, kpt   34 (  0.76471  0.88235  0.88235), residuals and eigenvalues=
  3.91E-13  1.52E-13  5.18E-13  3.74E-13  7.68E-13  5.45E-13  9.44E-13  4.76E-13
 -8.1172E-01 -3.4523E-01 -2.6668E-01 -2.4032E-01  9.8807E-02  1.3025E-01
  1.4592E-01  2.0069E-01
 Non-SCF case, kpt   35 (  0.82353  0.91176  0.91176), residuals and eigenvalues=
  8.98E-13  4.78E-13  3.19E-13  7.37E-13  4.76E-13  4.01E-13  5.55E-13  4.56E-13
 -8.3037E-01 -3.6842E-01 -2.2472E-01 -2.0012E-01  7.3071E-02  1.0485E-01
  1.1883E-01  1.7642E-01
 Non-SCF case, kpt   36 (  0.88235  0.94118  0.94118), residuals and eigenvalues=
  5.36E-13  5.41E-13  2.12E-13  2.46E-13  8.83E-13  4.01E-13  7.96E-13  4.98E-13
 -8.4392E-01 -3.8508E-01 -1.9114E-01 -1.6339E-01  5.4693E-02  8.6766E-02
  9.9389E-02  1.5920E-01
 Non-SCF case, kpt   37 (  0.94118  0.97059  0.97059), residuals and eigenvalues=
  6.80E-13  6.99E-13  7.56E-13  6.38E-13  8.53E-13  8.05E-13  4.12E-13  5.76E-12
 -8.5192E-01 -3.9504E-01 -1.7036E-01 -1.3623E-01  4.3697E-02  7.5958E-02
  8.7694E-02  1.4893E-01
 Non-SCF case, kpt   38 (  1.00000  1.00000  1.00000), residuals and eigenvalues=
  5.98E-13  5.03E-13  2.97E-13  7.17E-13  5.01E-13  3.97E-13  6.45E-13  8.44E-13
 -8.5465E-01 -3.9873E-01 -1.6221E-01 -1.2478E-01  4.0038E-02  7.2337E-02
  8.3788E-02  1.4549E-01


--- !ResultsGS
iteration_state: {dtset: 2, }
comment   : Summary of ground state results
lattice_vectors:
- [  2.1300000,   3.6900000,   0.0000000, ]
- [ -2.1300000,   3.6900000,   0.0000000, ]
- [  0.0000000,   0.0000000,  30.0000000, ]
lattice_lengths: [   4.26063,    4.26063,   30.00000, ]
lattice_angles: [ 90.000,  90.000,  59.990, ] # degrees, (23, 13, 12)
lattice_volume:   4.7158200E+02
convergence: {deltae:  0.000E+00, res2:  0.000E+00, residm:  9.903E-13, diffor:  0.000E+00, }
etotal    :  -1.18734428E+01
entropy   :   0.00000000E+00
fermie    :  -8.28532413E-02
cartesian_stress_tensor: null
pressure_GPa: null
xred      :
- [  3.3000E-01,   3.3000E-01,   0.0000E+00,  C]
- [  6.7000E-01,   6.7000E-01,   0.0000E+00,  C]
cartesian_forces: null
force_length_stats: {min: null, max: null, mean: null, }
...

 Integrated electronic density in atomic spheres:
 ------------------------------------------------
 Atom  Sphere_radius  Integrated_density
    1        2.00000          5.58142642
    2        2.00000          5.58142642
================================================================================

 ----iterations are completed or convergence reached----

 Mean square residual over all n,k,spin=   55.315E-14; max=  99.026E-14
 reduced coordinates (array xred) for    2 atoms
       0.330000000000      0.330000000000      0.000000000000
       0.670000000000      0.670000000000      0.000000000000

 cartesian coordinates (angstrom) at end:
    1      0.00000000000000     1.28875817380009     0.00000000000000
    2     -0.00000000000000     2.61656962559411     0.00000000000000
 length scales=  1.000000000000  1.000000000000  1.000000000000 bohr
              =  0.529177208590  0.529177208590  0.529177208590 angstroms
 prteigrs : about to open file gbso_DS2_EIG
 Eigenvalues (   eV  ) for nkpt=  38  k points:
 kpt#   1, nband=  8, wtk=  1.00000, kpt=  0.5000  0.0000  0.0000 (reduced coord)
 -16.58967  -16.56786   -8.22945   -3.93624    0.48878    9.04023   10.58435   10.69387
 kpt#   2, nband=  8, wtk=  1.00000, kpt=  0.4500  0.0000  0.0000 (reduced coord)
 -17.79225  -15.24256   -8.14681   -4.44197    1.15108    8.75753    9.17194    9.86174
 kpt#   3, nband=  8, wtk=  1.00000, kpt=  0.4000  0.0000  0.0000 (reduced coord)
 -18.89942  -13.82932   -7.90661   -5.51104    2.60283    7.21133    8.22383    8.53531
 kpt#   4, nband=  8, wtk=  1.00000, kpt=  0.3500  0.0000  0.0000 (reduced coord)
 -19.89602  -12.33039   -7.54974   -6.65840    4.36129    5.78756    6.78102    7.07671
 kpt#   5, nband=  8, wtk=  1.00000, kpt=  0.3000  0.0000  0.0000 (reduced coord)
 -20.75867  -10.80091   -7.72592   -7.03834    4.54704    5.42200    5.80545    6.34813
 kpt#   6, nband=  8, wtk=  1.00000, kpt=  0.2500  0.0000  0.0000 (reduced coord)
 -21.50834   -9.27193   -8.65689   -6.41292    3.49274    4.40174    4.72850    6.37281
 kpt#   7, nband=  8, wtk=  1.00000, kpt=  0.2000  0.0000  0.0000 (reduced coord)
 -22.13213   -9.43327   -7.78712   -5.69533    2.62803    3.52945    3.84694    5.51273
 kpt#   8, nband=  8, wtk=  1.00000, kpt=  0.1500  0.0000  0.0000 (reduced coord)
 -22.62512  -10.05337   -6.46427   -4.92967    1.95467    2.84703    3.16121    4.83395
 kpt#   9, nband=  8, wtk=  1.00000, kpt=  0.1000  0.0000  0.0000 (reduced coord)
 -22.97488  -10.49070   -5.36595   -4.18962    1.47382    2.35941    2.67153    4.34847
 kpt#  10, nband=  8, wtk=  1.00000, kpt=  0.0500  0.0000  0.0000 (reduced coord)
 -23.18183  -10.75394   -4.68125   -3.62238    1.18572    2.06662    2.37790    4.05687
 kpt#  11, nband=  8, wtk=  1.00000, kpt=  0.0000  0.0000  0.0000 (reduced coord)
 -23.25619  -10.84986   -4.41388   -3.39549    1.08949    1.96839    2.27998    3.95886
 kpt#  12, nband=  8, wtk=  1.00000, kpt=  0.0000  0.0500  0.0500 (reduced coord)
 -23.18093  -10.75100   -4.68355   -3.62922    1.18629    2.05722    2.39145    4.03469
 kpt#  13, nband=  8, wtk=  1.00000, kpt=  0.0000  0.1000  0.1000 (reduced coord)
 -22.97462  -10.48870   -5.37649   -4.18662    1.47593    2.32562    2.72118    4.26657
 kpt#  14, nband=  8, wtk=  1.00000, kpt=  0.0000  0.1500  0.1500 (reduced coord)
 -22.62106  -10.04463   -6.45792   -4.92892    1.95936    2.78293    3.26131    4.67089
 kpt#  15, nband=  8, wtk=  1.00000, kpt=  0.0000  0.2000  0.2000 (reduced coord)
 -22.13690   -9.43401   -7.79505   -5.69605    2.63493    3.43388    4.00465    5.25773
 kpt#  16, nband=  8, wtk=  1.00000, kpt=  0.0000  0.2500  0.2500 (reduced coord)
 -21.50796   -9.26988   -8.65585   -6.41271    3.50274    4.28045    4.94544    6.03157
 kpt#  17, nband=  8, wtk=  1.00000, kpt=  0.0000  0.3000  0.3000 (reduced coord)
 -20.76092  -10.80715   -7.72081   -7.03990    4.55885    5.30133    6.00757    6.41912
 kpt#  18, nband=  8, wtk=  1.00000, kpt=  0.0000  0.3500  0.3500 (reduced coord)
 -19.89566  -12.34485   -7.54769   -6.65970    4.37474    5.80081    6.60811    7.43689
 kpt#  19, nband=  8, wtk=  1.00000, kpt=  0.0000  0.4000  0.4000 (reduced coord)
 -18.89348  -13.82467   -7.90362   -5.52161    2.60413    7.22478    8.04839    8.93746
 kpt#  20, nband=  8, wtk=  1.00000, kpt=  0.0000  0.4500  0.4500 (reduced coord)
 -17.80012  -15.24432   -8.13821   -4.47262    1.14649    8.76208    9.17623    9.69304
 kpt#  21, nband=  8, wtk=  1.00000, kpt=  0.0000  0.5000  0.5000 (reduced coord)
 -16.58655  -16.56741   -8.20989   -3.95023    0.50898    9.05544   10.59492   10.70605
 kpt#  22, nband=  8, wtk=  1.00000, kpt=  0.0588  0.5294  0.5294 (reduced coord)
 -16.51695  -16.50364   -8.54039   -3.84755    0.50205    9.47816   10.68633   10.80228
 kpt#  23, nband=  8, wtk=  1.00000, kpt=  0.1176  0.5588  0.5588 (reduced coord)
 -16.33346  -16.30627   -9.40263   -3.57119    0.48360   10.63088   10.96915   11.10181
 kpt#  24, nband=  8, wtk=  1.00000, kpt=  0.1765  0.5882  0.5882 (reduced coord)
 -16.03701  -15.96297  -10.60329   -3.10852    0.37568   11.30400   11.39909   11.52332
 kpt#  25, nband=  8, wtk=  1.00000, kpt=  0.2353  0.6176  0.6176 (reduced coord)
 -15.62805  -15.50233  -11.97800   -2.45373    0.06367   10.50207   12.01906   12.15878
 kpt#  26, nband=  8, wtk=  1.00000, kpt=  0.2941  0.6471  0.6471 (reduced coord)
 -15.09512  -14.94426  -13.33552   -1.63772   -0.54506    9.91686   12.78794   12.91727
 kpt#  27, nband=  8, wtk=  1.00000, kpt=  0.3529  0.6765  0.6765 (reduced coord)
 -15.07461  -14.43985  -13.88864   -1.56685   -0.56503    9.80215   12.81665   13.66011
 kpt#  28, nband=  8, wtk=  1.00000, kpt=  0.4118  0.7059  0.7059 (reduced coord)
 -16.31948  -13.71697  -13.16291   -2.73285    0.59881   10.01205   10.94452   12.20171
 kpt#  29, nband=  8, wtk=  1.00000, kpt=  0.4706  0.7353  0.7353 (reduced coord)
 -17.56145  -12.86657  -12.22508   -4.02422    1.94152    9.12662    9.66394   10.53390
 kpt#  30, nband=  8, wtk=  1.00000, kpt=  0.5294  0.7647  0.7647 (reduced coord)
 -18.71122  -11.90446  -11.17929   -5.31586    3.43120    7.46314    8.25238    8.92395
 kpt#  31, nband=  8, wtk=  1.00000, kpt=  0.5882  0.7941  0.7941 (reduced coord)
 -19.75305  -10.83605  -10.05077   -6.53296    5.04448    5.97893    6.80619    7.40261
 kpt#  32, nband=  8, wtk=  1.00000, kpt=  0.6471  0.8235  0.8235 (reduced coord)
 -20.66500   -9.68358   -8.87459   -7.63295    4.68578    5.52374    6.05913    6.80355
 kpt#  33, nband=  8, wtk=  1.00000, kpt=  0.7059  0.8529  0.8529 (reduced coord)
 -21.43962   -8.59521   -8.47253   -7.67941    3.58861    4.43508    4.91376    6.31432
 kpt#  34, nband=  8, wtk=  1.00000, kpt=  0.7647  0.8824  0.8824 (reduced coord)
 -22.08794   -9.39432   -7.25669   -6.53950    2.68867    3.54437    3.97062    5.46107
 kpt#  35, nband=  8, wtk=  1.00000, kpt=  0.8235  0.9118  0.9118 (reduced coord)
 -22.59562  -10.02520   -6.11502   -5.44561    1.98836    2.85304    3.23345    4.80067
 kpt#  36, nband=  8, wtk=  1.00000, kpt=  0.8824  0.9412  0.9412 (reduced coord)
 -22.96413  -10.47859   -5.20114   -4.44612    1.48826    2.36101    2.70452    4.33207
 kpt#  37, nband=  8, wtk=  1.00000, kpt=  0.9412  0.9706  0.9706 (reduced coord)
 -23.18188  -10.74964   -4.63585   -3.70697    1.18906    2.06693    2.38627    4.05262
 kpt#  38, nband=  8, wtk=  1.00000, kpt=  1.0000  1.0000  1.0000 (reduced coord)
 -23.25619  -10.84986   -4.41388   -3.39549    1.08949    1.96839    2.27998    3.95886

== END DATASET(S) ==============================================================
================================================================================
  
 -outvars: echo values of variables after computation  --------
            acell      1.0000000000E+00  1.0000000000E+00  1.0000000000E+00 Bohr
              amu      1.20110000E+01
           diemac      1.00000000E+01
             ecut      1.50000000E+01 Hartree
           enunit1          0
           enunit2          1
           etotal1    -1.1873442850E+01
            fcart1    -2.4964971620E-18  5.8906136164E-02 -0.0000000000E+00
                       2.4964971620E-18 -5.8906136164E-02 -0.0000000000E+00
-          fftalg         112
           getden1          0
           getden2         -1
             iscf1          7
             iscf2         -2
           istwfk2       3    0    0    0    0    0    0    0    0    0
                         2    0    0    0    0    0    0    0    0    0
                         8    0    0    0    0    0    0    0    0    0
                         0    0    0    0    0    0    0    0
              ixc          11
           jdtset        1    2
              kpt1    -1.25000000E-01  0.00000000E+00  0.00000000E+00
                      -1.25000000E-01  0.00000000E+00  2.50000000E-01
                      -2.50000000E-01  0.00000000E+00  1.25000000E-01
                      -1.25000000E-01  1.25000000E-01  1.25000000E-01
                      -3.75000000E-01  0.00000000E+00  0.00000000E+00
                      -2.50000000E-01  1.25000000E-01  0.00000000E+00
                      -1.25000000E-01  0.00000000E+00  5.00000000E-01
                      -2.50000000E-01  0.00000000E+00  3.75000000E-01
                      -1.25000000E-01  1.25000000E-01  3.75000000E-01
                      -3.75000000E-01  0.00000000E+00  2.50000000E-01
                      -2.50000000E-01  1.25000000E-01  2.50000000E-01
                       5.00000000E-01  0.00000000E+00  1.25000000E-01
                      -3.75000000E-01  1.25000000E-01  1.25000000E-01
                      -2.50000000E-01  2.50000000E-01  1.25000000E-01
                       5.00000000E-01  1.25000000E-01  0.00000000E+00
                      -3.75000000E-01  2.50000000E-01  0.00000000E+00
                      -3.75000000E-01  0.00000000E+00  5.00000000E-01
                      -2.50000000E-01  1.25000000E-01  5.00000000E-01
                       5.00000000E-01  0.00000000E+00  3.75000000E-01
                      -3.75000000E-01  1.25000000E-01  3.75000000E-01
                      -2.50000000E-01  2.50000000E-01  3.75000000E-01
                       5.00000000E-01  1.25000000E-01  2.50000000E-01
                      -3.75000000E-01  2.50000000E-01  2.50000000E-01
                       3.75000000E-01  1.25000000E-01  1.25000000E-01
                       5.00000000E-01  2.50000000E-01  1.25000000E-01
                      -3.75000000E-01  3.75000000E-01  1.25000000E-01
                       2.50000000E-01  1.25000000E-01  0.00000000E+00
                       3.75000000E-01  2.50000000E-01  0.00000000E+00
                       5.00000000E-01  3.75000000E-01  0.00000000E+00
                       5.00000000E-01  1.25000000E-01  5.00000000E-01
                      -3.75000000E-01  2.50000000E-01  5.00000000E-01
                       3.75000000E-01  1.25000000E-01  3.75000000E-01
                       5.00000000E-01  2.50000000E-01  3.75000000E-01
                      -3.75000000E-01  3.75000000E-01  3.75000000E-01
                       2.50000000E-01  1.25000000E-01  2.50000000E-01
                       3.75000000E-01  2.50000000E-01  2.50000000E-01
                       5.00000000E-01  3.75000000E-01  2.50000000E-01
                       0.00000000E+00  0.00000000E+00  1.25000000E-01
                       1.25000000E-01  1.25000000E-01  1.25000000E-01
                       2.50000000E-01  2.50000000E-01  1.25000000E-01
                       3.75000000E-01  3.75000000E-01  1.25000000E-01
                       5.00000000E-01  5.00000000E-01  1.25000000E-01
                       2.50000000E-01  1.25000000E-01  5.00000000E-01
                       3.75000000E-01  2.50000000E-01  5.00000000E-01
                       5.00000000E-01  3.75000000E-01  5.00000000E-01
                       0.00000000E+00  0.00000000E+00  3.75000000E-01
                       1.25000000E-01  1.25000000E-01  3.75000000E-01
                       2.50000000E-01  2.50000000E-01  3.75000000E-01
                       3.75000000E-01  3.75000000E-01  3.75000000E-01
                       5.00000000E-01  5.00000000E-01  3.75000000E-01
              kpt2     5.00000000E-01  0.00000000E+00  0.00000000E+00
                       4.50000000E-01  0.00000000E+00  0.00000000E+00
                       4.00000000E-01  0.00000000E+00  0.00000000E+00
                       3.50000000E-01  0.00000000E+00  0.00000000E+00
                       3.00000000E-01  0.00000000E+00  0.00000000E+00
                       2.50000000E-01  0.00000000E+00  0.00000000E+00
                       2.00000000E-01  0.00000000E+00  0.00000000E+00
                       1.50000000E-01  0.00000000E+00  0.00000000E+00
                       1.00000000E-01  0.00000000E+00  0.00000000E+00
                       5.00000000E-02  0.00000000E+00  0.00000000E+00
                       0.00000000E+00  0.00000000E+00  0.00000000E+00
                       0.00000000E+00  5.00000000E-02  5.00000000E-02
                       0.00000000E+00  1.00000000E-01  1.00000000E-01
                       0.00000000E+00  1.50000000E-01  1.50000000E-01
                       0.00000000E+00  2.00000000E-01  2.00000000E-01
                       0.00000000E+00  2.50000000E-01  2.50000000E-01
                       0.00000000E+00  3.00000000E-01  3.00000000E-01
                       0.00000000E+00  3.50000000E-01  3.50000000E-01
                       0.00000000E+00  4.00000000E-01  4.00000000E-01
                       0.00000000E+00  4.50000000E-01  4.50000000E-01
                       0.00000000E+00  5.00000000E-01  5.00000000E-01
                       5.88235294E-02  5.29411765E-01  5.29411765E-01
                       1.17647059E-01  5.58823529E-01  5.58823529E-01
                       1.76470588E-01  5.88235294E-01  5.88235294E-01
                       2.35294118E-01  6.17647059E-01  6.17647059E-01
                       2.94117647E-01  6.47058824E-01  6.47058824E-01
                       3.52941176E-01  6.76470588E-01  6.76470588E-01
                       4.11764706E-01  7.05882353E-01  7.05882353E-01
                       4.70588235E-01  7.35294118E-01  7.35294118E-01
                       5.29411765E-01  7.64705882E-01  7.64705882E-01
                       5.88235294E-01  7.94117647E-01  7.94117647E-01
                       6.47058824E-01  8.23529412E-01  8.23529412E-01
                       7.05882353E-01  8.52941176E-01  8.52941176E-01
                       7.64705882E-01  8.82352941E-01  8.82352941E-01
                       8.23529412E-01  9.11764706E-01  9.11764706E-01
                       8.82352941E-01  9.41176471E-01  9.41176471E-01
                       9.41176471E-01  9.70588235E-01  9.70588235E-01
                       1.00000000E+00  1.00000000E+00  1.00000000E+00
           kptopt1          1
           kptopt2         -3
         kptrlatt        0    8    0     -8    8    0     -4    4    4
          kptrlen1     3.40800000E+01
          kptrlen2     3.00000000E+01
P           mkmem1         50
P           mkmem2         38
            natom           2
            nband1          5
            nband2          8
           nbdbuf1          0
           nbdbuf2          2
           ndtset           2
           ndivsm1          0
           ndivsm2         10
            ngfft          16      16     108
             nkpt1         50
             nkpt2         38
            nstep          20
             nsym           8
           ntypat           1
              occ      2.000000  2.000000  2.000000  2.000000  0.000000
            rprim      2.1300000000E+00  3.6900000000E+00  0.0000000000E+00
                      -2.1300000000E+00  3.6900000000E+00  0.0000000000E+00
                       0.0000000000E+00  0.0000000000E+00  3.0000000000E+01
           shiftk1     0.00000000E+00  0.00000000E+00  5.00000000E-01
           shiftk2     5.00000000E-01  5.00000000E-01  5.00000000E-01
          spgroup          65
           strten1    -8.6812784627E-04 -6.7324784309E-04  5.7901515050E-04
                       0.0000000000E+00  0.0000000000E+00  0.0000000000E+00
           symrel      1  0  0   0  1  0   0  0  1      -1  0  0   0 -1  0   0  0 -1
                       0 -1  0  -1  0  0   0  0 -1       0  1  0   1  0  0   0  0  1
                      -1  0  0   0 -1  0   0  0  1       1  0  0   0  1  0   0  0 -1
                       0  1  0   1  0  0   0  0 -1       0 -1  0  -1  0  0   0  0  1
           toldfe1     1.00000000E-08 Hartree
           toldfe2     0.00000000E+00 Hartree
           tolwfr1     0.00000000E+00
           tolwfr2     1.00000000E-12
            typat      1  1
              wtk1       0.01563    0.03125    0.03125    0.01563    0.01563    0.01563
                         0.01563    0.03125    0.01563    0.03125    0.03125    0.01563
                         0.03125    0.01563    0.01563    0.01563    0.01563    0.01563
                         0.01563    0.03125    0.01563    0.03125    0.03125    0.03125
                         0.03125    0.01563    0.01563    0.01563    0.01563    0.01563
                         0.01563    0.03125    0.03125    0.01563    0.03125    0.03125
                         0.03125    0.00781    0.01563    0.01563    0.01563    0.00781
                         0.01563    0.01563    0.01563    0.00781    0.01563    0.01563
                         0.01563    0.00781
              wtk2       1.00000    1.00000    1.00000    1.00000    1.00000    1.00000
                         1.00000    1.00000    1.00000    1.00000    1.00000    1.00000
                         1.00000    1.00000    1.00000    1.00000    1.00000    1.00000
                         1.00000    1.00000    1.00000    1.00000    1.00000    1.00000
                         1.00000    1.00000    1.00000    1.00000    1.00000    1.00000
                         1.00000    1.00000    1.00000    1.00000    1.00000    1.00000
                         1.00000    1.00000
           xangst      1.5169371898E-17  1.2887581738E+00  0.0000000000E+00
                      -3.7130298372E-18  2.6165696256E+00  0.0000000000E+00
            xcart      2.8665958496E-17  2.4354000000E+00  0.0000000000E+00
                      -7.0166095156E-18  4.9446000000E+00  0.0000000000E+00
             xred      3.3000000000E-01  3.3000000000E-01  0.0000000000E+00
                       6.7000000000E-01  6.7000000000E-01  0.0000000000E+00
            znucl        6.00000

================================================================================


- Timing analysis has been suppressed with timopt=0



================================================================================

 Suggested references for the acknowledgment of ABINIT usage.

 The users of ABINIT have little formal obligations with respect to the ABINIT group
 (those specified in the GNU General Public License, http://www.gnu.org/copyleft/gpl.txt).
 However, it is common practice in the scientific literature,
 to acknowledge the efforts of people that have made the research possible.
 In this spirit, please find below suggested citations of work written by ABINIT developers,
 corresponding to implementations inside of ABINIT that you have used in the present run.
 Note also that it will be of great value to readers of publications presenting these results,
 to read papers enabling them to understand the theoretical formalism and details
 of the ABINIT implementation.
 For information on why they are suggested, see also https://docs.abinit.org/theory/acknowledgments.
-
- [1] The Abinit project: Impact, environment and recent developments.
- Computer Phys. Comm. 248, 107042 (2020).
- X.Gonze, B. Amadon, G. Antonius, F.Arnardi, L.Baguet, J.-M.Beuken,
- J.Bieder, F.Bottin, J.Bouchet, E.Bousquet, N.Brouwer, F.Bruneval,
- G.Brunin, T.Cavignac, J.-B. Charraud, Wei Chen, M.Cote, S.Cottenier,
- J.Denier, G.Geneste, Ph.Ghosez, M.Giantomassi, Y.Gillet, O.Gingras,
- D.R.Hamann, G.Hautier, Xu He, N.Helbig, N.Holzwarth, Y.Jia, F.Jollet,
- W.Lafargue-Dit-Hauret, K.Lejaeghere, M.A.L.Marques, A.Martin, C.Martins,
- H.P.C. Miranda, F.Naccarato, K. Persson, G.Petretto, V.Planes, Y.Pouillon,
- S.Prokhorenko, F.Ricci, G.-M.Rignanese, A.H.Romero, M.M.Schmitt, M.Torrent,
- M.J.van Setten, B.Van Troeye, M.J.Verstraete, G.Zerah and J.W.Zwanzig
- Comment: the fifth generic paper describing the ABINIT project.
- Note that a version of this paper, that is not formatted for Computer Phys. Comm. 
- is available at https://www.abinit.org/sites/default/files/ABINIT20.pdf .
- The licence allows the authors to put it on the Web.
- DOI and bibtex: see https://docs.abinit.org/theory/bibliography/#gonze2020
-
- [2] Optimized norm-conserving Vanderbilt pseudopotentials.
- D.R. Hamann, Phys. Rev. B 88, 085117 (2013).
- Comment: Some pseudopotential generated using the ONCVPSP code were used.
- DOI and bibtex: see https://docs.abinit.org/theory/bibliography/#hamann2013
-
- [3] ABINIT: Overview, and focus on selected capabilities
- J. Chem. Phys. 152, 124102 (2020).
- A. Romero, D.C. Allan, B. Amadon, G. Antonius, T. Applencourt, L.Baguet,
- J.Bieder, F.Bottin, J.Bouchet, E.Bousquet, F.Bruneval,
- G.Brunin, D.Caliste, M.Cote,
- J.Denier, C. Dreyer, Ph.Ghosez, M.Giantomassi, Y.Gillet, O.Gingras,
- D.R.Hamann, G.Hautier, F.Jollet, G. Jomard,
- A.Martin, 
- H.P.C. Miranda, F.Naccarato, G.Petretto, N.A. Pike, V.Planes,
- S.Prokhorenko, T. Rangel, F.Ricci, G.-M.Rignanese, M.Royo, M.Stengel, M.Torrent,
- M.J.van Setten, B.Van Troeye, M.J.Verstraete, J.Wiktor, J.W.Zwanziger, and X.Gonze.
- Comment: a global overview of ABINIT, with focus on selected capabilities .
- Note that a version of this paper, that is not formatted for J. Chem. Phys 
- is available at https://www.abinit.org/sites/default/files/ABINIT20_JPC.pdf .
- The licence allows the authors to put it on the Web.
- DOI and bibtex: see https://docs.abinit.org/theory/bibliography/#romero2020
-
- [4] Recent developments in the ABINIT software package.
- Computer Phys. Comm. 205, 106 (2016).
- X.Gonze, F.Jollet, F.Abreu Araujo, D.Adams, B.Amadon, T.Applencourt,
- C.Audouze, J.-M.Beuken, J.Bieder, A.Bokhanchuk, E.Bousquet, F.Bruneval
- D.Caliste, M.Cote, F.Dahm, F.Da Pieve, M.Delaveau, M.Di Gennaro,
- B.Dorado, C.Espejo, G.Geneste, L.Genovese, A.Gerossier, M.Giantomassi,
- Y.Gillet, D.R.Hamann, L.He, G.Jomard, J.Laflamme Janssen, S.Le Roux,
- A.Levitt, A.Lherbier, F.Liu, I.Lukacevic, A.Martin, C.Martins,
- M.J.T.Oliveira, S.Ponce, Y.Pouillon, T.Rangel, G.-M.Rignanese,
- A.H.Romero, B.Rousseau, O.Rubel, A.A.Shukri, M.Stankovski, M.Torrent,
- M.J.Van Setten, B.Van Troeye, M.J.Verstraete, D.Waroquier, J.Wiktor,
- B.Xu, A.Zhou, J.W.Zwanziger.
- Comment: the fourth generic paper describing the ABINIT project.
- Note that a version of this paper, that is not formatted for Computer Phys. Comm. 
- is available at https://www.abinit.org/sites/default/files/ABINIT16.pdf .
- The licence allows the authors to put it on the Web.
- DOI and bibtex: see https://docs.abinit.org/theory/bibliography/#gonze2016
-
- And optionally:
-
- [5] ABINIT: First-principles approach of materials and nanosystem properties.
- Computer Phys. Comm. 180, 2582-2615 (2009).
- X. Gonze, B. Amadon, P.-M. Anglade, J.-M. Beuken, F. Bottin, P. Boulanger, F. Bruneval,
- D. Caliste, R. Caracas, M. Cote, T. Deutsch, L. Genovese, Ph. Ghosez, M. Giantomassi
- S. Goedecker, D.R. Hamann, P. Hermet, F. Jollet, G. Jomard, S. Leroux, M. Mancini, S. Mazevet,
- M.J.T. Oliveira, G. Onida, Y. Pouillon, T. Rangel, G.-M. Rignanese, D. Sangalli, R. Shaltaf,
- M. Torrent, M.J. Verstraete, G. Zerah, J.W. Zwanziger
- Comment: the third generic paper describing the ABINIT project.
- Note that a version of this paper, that is not formatted for Computer Phys. Comm. 
- is available at https://www.abinit.org/sites/default/files/ABINIT_CPC_v10.pdf .
- The licence allows the authors to put it on the Web.
- DOI and bibtex: see https://docs.abinit.org/theory/bibliography/#gonze2009
-
- Proc.   0 individual time (sec): cpu=         18.5  wall=         18.5

================================================================================

 Calculation completed.
.Delivered   3 WARNINGs and   5 COMMENTs to log file.
+Overall time at end (sec) : cpu=         18.5  wall=         18.5
